version 2
run Dxps-0-20110707-02:19:17-10245
attr configname Dxps
attr datetime 20110707-02:19:17
attr experiment Dxps
attr inifile /Users/hill/sim/repos/simulations/dxps.ini
attr iterationvars ""
attr iterationvars2 $repetition=0
attr measurement ""
attr network oversim.underlay.simpleunderlay.SimpleUnderlayNetwork
attr processid 10245
attr repetition 0
attr replication #0
attr resultdir results
attr runnumber 0
attr seedset 0

vector 1  SimpleUnderlayNetwork.globalObserver.globalStatistics  "GlobalNodeList: Number of nodes"  ETV
vector 2  SimpleUnderlayNetwork.globalObserver.globalStatistics  "LifetimeChurn: Session Time"  ETV
vector 3  SimpleUnderlayNetwork.globalObserver.globalStatistics  "LifetimeChurn: Time between creates"  ETV
vector 4  SimpleUnderlayNetwork.globalObserver.globalStatistics  "LifetimeChurn: Time between deletes"  ETV
1	1	0	0
1	4582	50	10
1	7702	100	10
1	10600	150	10
1	13936	200	9
1	17133	250	9
1	19895	300	9
1	23572	350	9
1	26904	400	9
1	30089	450	9
1	33256	500	9
1	36957	550	9
1	40496	600	9
1	44370	650	9
1	47923	700	9
1	51484	750	9
1	55390	800	9
1	59794	850	9
1	63868	900	9
1	69444	950	10
1	75088	1000	10
1	80727	1050	10
1	85773	1100	10
1	91202	1150	10
1	96913	1200	10
1	102562	1250	10
1	107916	1300	10
1	113186	1350	10
1	118850	1400	10
1	124631	1450	10
1	130137	1500	10
1	136592	1550	11
1	142906	1600	11
1	149087	1650	11
1	155839	1700	11
1	163278	1750	11
1	170222	1800	11
1	177730	1850	11
1	185104	1900	11
1	192648	1950	11
1	199812	2000	11
1	207676	2050	11
1	214267	2100	10
1	221454	2150	10
1	228694	2200	10
1	238751	2250	10
1	249820	2300	10
1	261786	2350	10
1	272072	2400	10
1	284158	2450	10
1	296928	2500	11
1	308169	2550	11
1	317941	2600	11
1	328930	2650	11
1	339538	2700	11
1	350447	2750	11
1	361173	2800	11
1	371583	2850	11
1	382993	2900	12
1	394267	2950	12
1	404634	3000	12
1	415423	3050	12
1	426304	3100	12
1	436622	3150	12
1	447170	3200	12
1	457677	3250	12
1	468572	3300	12
1	478598	3350	12
1	489469	3400	12
1	499630	3450	12
1	516898	3500	12
1	529542	3550	12
1	541569	3600	12
1	557326	3650	12
1	566664	3700	12
1	575339	3750	12
1	584471	3800	12
1	593746	3850	12
1	602850	3900	12
1	611892	3950	12
1	621385	4000	12
1	630973	4050	12
1	640736	4100	12
1	650225	4150	12
1	662895	4200	12
1	673374	4250	12
1	683205	4300	12
1	693467	4350	12
1	703213	4400	12
1	715488	4450	12
1	725093	4500	12
1	737874	4550	12
1	747956	4600	12
1	766901	4650	11
1	778787	4700	11
1	789805	4750	11
1	800663	4800	11
1	810254	4850	11
1	820315	4900	10
1	828983	4950	10
1	837992	5000	10
1	847233	5050	9
1	855710	5100	9
1	864840	5150	9
1	874220	5200	9
1	883364	5250	9
1	892665	5300	9
1	903018	5350	9
1	916904	5400	10
1	927429	5450	10
1	937892	5500	10
1	946784	5550	10
1	955012	5600	10
1	963615	5650	10
1	971876	5700	10
1	980424	5750	10
1	989646	5800	10
1	998438	5850	10
1	1007051	5900	10
1	1016198	5950	10
1	1025602	6000	11
1	1034667	6050	11
1	1044042	6100	11
1	1053243	6150	11
1	1062874	6200	12
1	1073313	6250	12
1	1082647	6300	12
1	1094992	6350	12
1	1104804	6400	12
1	1113881	6450	12
1	1123327	6500	11
1	1130977	6550	11
1	1145009	6600	12
1	1158682	6650	12
1	1172324	6700	12
1	1185257	6750	12
1	1197021	6800	12
1	1210507	6850	13
1	1225822	6900	13
1	1235896	6950	13
1	1246954	7000	13
1	1256793	7050	13
1	1266202	7100	13
1	1274611	7150	13
1	1282683	7200	13
1	1290870	7250	13
1	1301112	7300	13
1	1308276	7350	13
1	1315491	7400	13
1	1323610	7450	13
1	1330659	7500	13
1	1339367	7550	14
1	1347853	7600	14
1	1355700	7650	14
1	1363346	7700	14
1	1372190	7750	14
1	1380331	7800	14
1	1389681	7850	15
1	1400668	7900	15
1	1409859	7950	15
1	1419240	8000	15
1	1428884	8050	15
1	1438328	8100	15
1	1447127	8150	15
1	1455907	8200	15
1	1465094	8250	15
1	1474008	8300	15
1	1483196	8350	15
1	1493263	8400	15
1	1502299	8450	15
1	1512729	8500	15
1	1521766	8550	14
1	1535534	8600	14
1	1547308	8650	14
1	1559526	8700	14
1	1572697	8750	15
1	1586341	8800	15
1	1598607	8850	15
1	1611667	8900	15
1	1623467	8950	15
1	1635350	9000	15
1	1648615	9050	15
1	1661243	9100	15
1	1672155	9150	15
1	1684133	9200	15
1	1696342	9250	14
1	1708086	9300	14
1	1717475	9350	14
1	1727152	9400	14
1	1736054	9450	14
1	1748015	9500	15
1	1758918	9550	15
1	1770267	9600	15
1	1781164	9650	15
1	1795421	9700	15
1	1805632	9750	15
1	1816008	9800	15
1	1826275	9850	15
1	1836511	9900	15
1	1846341	9950	15
1	1856641	10000	15
1	1866780	10050	15
1	1877050	10100	15
1	1887525	10150	15
1	1897694	10200	15
1	1908048	10250	15
1	1918584	10300	15
1	1928459	10350	15
1	1939270	10400	15
1	1952025	10450	16
1	1962411	10500	16
1	1973779	10550	16
1	1984394	10600	16
1	1995278	10650	16
1	2006304	10700	16
2	2	0.217829337	9241.93638778
2	33	1.224823493	6503.661265732
2	90	2.571822527	25990.878411794
2	192	3.607553925	4599.003449987
2	258	4.114792731	38457.757481104
2	429	4.969314033	11364.312370187
2	562	5.443274075	28948.38512108
2	1123	6.952783763	2065.067307883
2	1302	7.781933873	191.400360331
2	1862	9.654567193	4886.745892484
2	65739	921.610261242	4115.779962426
2	132493	1522.308536649	15057.842586373
2	284318	2450.484907365	6090.82423183
2	379987	2887.272569472	12651.960932176
2	907260	5365.657202278	1119.461606326
2	1022851	5987.460768184	11451.389547
2	1062653	6199.294596267	16140.020748925
2	1130578	6548.825672211	7526.741133128
2	1133103	6558.009039563	11572.388002433
2	1202719	6822.065729447	11753.872777567
2	1333259	7517.733059979	31228.614482085
2	1389518	7849.588649381	7394.365521103
2	1567364	8733.211950421	10214.318743492
2	1742032	9479.966771749	1621.364894459
2	1940380	10405.245248176	6609.651128657
3	2	0.217829337	0.217829337
3	33	1.224823493	1.006994156
3	90	2.571822527	1.346999034
3	192	3.607553925	1.035731398
3	258	4.114792731	0.507238806
3	429	4.969314033	0.854521302
3	562	5.443274075	0.473960042
3	1123	6.952783763	1.509509688
3	1302	7.781933873	0.82915011
3	1862	9.654567193	1.87263332
3	65739	921.610261242	911.955694049
3	132493	1522.308536649	600.698275407
3	284318	2450.484907365	928.176370716
3	379987	2887.272569472	436.787662107
3	907260	5365.657202278	2478.384632806
3	1022851	5987.460768184	621.803565906
3	1062653	6199.294596267	211.833828083
3	1130578	6548.825672211	349.531075944
3	1133103	6558.009039563	9.183367352
3	1202719	6822.065729447	264.056689884
3	1333259	7517.733059979	695.667330532
3	1389518	7849.588649381	331.855589402
3	1567364	8733.211950421	883.62330104
3	1742032	9479.966771749	746.754821328
3	1940380	10405.245248176	925.278476427
4	12847	184.182294204	184.182294204
4	208646	2057.020091646	1872.837797442
4	745604	4587.611003912	2530.590912266
4	817055	4881.400459677	293.789455765
4	842524	5022.390223668	140.989763991
4	1117590	6470.118808604	1447.728584936
4	1121882	6489.886089225	19.767280621
4	1517323	8526.309139195	2036.42304997
4	1690172	9227.154217117	700.845077922
