version 2
run Dxps-0-20110708-22:51:43-11298
attr configname Dxps
attr datetime 20110708-22:51:43
attr experiment Dxps
attr inifile /Users/hill/sim/repos/simulations/dxps.ini
attr iterationvars ""
attr iterationvars2 $repetition=0
attr measurement ""
attr network oversim.underlay.simpleunderlay.SimpleUnderlayNetwork
attr processid 11298
attr repetition 0
attr replication #0
attr resultdir results
attr runnumber 0
attr seedset 0

vector 1  SimpleUnderlayNetwork.globalObserver.globalStatistics  "GlobalNodeList: Number of nodes"  ETV
1	1	0	0
1	918	50	3
1	1949	100	3
1	3047	150	3
1	4420	200	3
1	5802	250	3
1	7103	300	3
1	8566	350	3
1	10027	400	3
1	11436	450	3
1	12884	500	3
1	14369	550	3
1	15779	600	3
1	17251	650	3
1	18750	700	3
1	20207	750	3
1	21788	800	3
1	23350	850	3
1	24833	900	3
1	26371	950	3
1	27899	1000	3
1	29312	1050	3
1	30861	1100	3
1	32462	1150	3
1	34038	1200	3
1	35706	1250	3
1	37409	1300	3
1	38951	1350	3
1	40785	1400	3
1	42584	1450	3
1	44244	1500	3
1	46037	1550	3
1	47809	1600	3
1	49476	1650	3
1	51211	1700	3
1	52993	1750	3
1	54598	1800	3
1	56381	1850	3
1	58173	1900	3
1	59854	1950	3
1	61623	2000	3
1	63429	2050	3
1	65086	2100	3
1	66883	2150	3
1	68617	2200	3
1	70250	2250	3
1	72023	2300	3
1	73767	2350	3
1	75424	2400	3
1	77213	2450	3
1	78957	2500	3
1	80642	2550	3
1	82380	2600	3
1	84176	2650	3
1	85850	2700	3
1	87647	2750	3
1	89430	2800	3
1	91080	2850	3
1	92863	2900	3
1	94669	2950	3
1	96336	3000	3
1	98081	3050	3
1	99839	3100	3
1	101534	3150	3
1	103265	3200	3
1	105005	3250	3
1	106676	3300	3
1	108445	3350	3
1	110217	3400	3
1	111898	3450	3
1	113691	3500	3
1	115487	3550	3
1	117182	3600	3
1	118979	3650	3
1	120699	3700	3
1	122360	3750	3
1	124091	3800	3
1	125855	3850	3
1	127512	3900	3
1	129319	3950	3
1	131101	4000	3
1	132730	4050	3
1	134533	4100	3
1	136298	4150	3
1	137952	4200	3
1	139731	4250	3
1	141475	4300	3
1	143160	4350	3
1	145007	4400	3
1	146789	4450	3
1	148446	4500	3
1	150201	4550	3
1	151973	4600	3
1	153620	4650	3
1	155413	4700	3
1	157147	4750	3
1	158852	4800	3
1	160655	4850	3
1	162420	4900	3
1	164046	4950	3
1	165791	5000	3
1	167542	5050	3
1	169236	5100	3
1	171016	5150	3
1	172835	5200	3
1	174516	5250	3
1	176299	5300	3
1	178091	5350	3
1	179676	5400	3
1	181479	5450	3
1	183265	5500	3
1	184932	5550	3
1	186687	5600	3
1	188493	5650	3
1	190174	5700	3
1	191977	5750	3
1	193759	5800	3
1	195392	5850	3
1	197209	5900	3
1	199005	5950	3
1	200642	6000	3
1	202445	6050	3
1	204141	6100	3
1	205768	6150	3
1	207575	6200	3
1	209353	6250	3
1	210986	6300	3
1	212755	6350	3
1	214534	6400	3
1	216208	6450	3
1	217963	6500	3
1	219731	6550	3
1	221368	6600	3
1	223191	6650	3
1	224994	6700	3
1	226634	6750	3
1	228423	6800	3
1	230171	6850	3
1	231862	6900	3
1	233665	6950	3
1	235467	7000	3
1	237110	7050	3
1	238831	7100	3
1	240589	7150	3
1	242250	7200	3
1	244043	7250	3
1	245784	7300	3
1	247458	7350	3
1	249261	7400	3
1	251029	7450	3
1	252710	7500	3
1	254493	7550	3
1	256227	7600	3
1	257898	7650	3
1	259735	7700	3
1	261493	7750	3
1	263140	7800	3
1	264957	7850	3
1	266763	7900	3
1	268430	7950	3
1	270179	8000	3
1	271961	8050	3
1	273666	8100	3
1	275473	8150	3
1	277265	8200	3
1	278960	8250	3
1	280767	8300	3
1	282583	8350	3
1	284206	8400	3
1	285995	8450	3
1	287777	8500	3
1	289482	8550	3
1	291265	8600	3
1	293071	8650	3
1	294756	8700	3
1	296559	8750	3
1	298334	8800	3
1	300028	8850	3
1	301821	8900	3
1	303569	8950	3
1	305226	9000	3
1	306981	9050	3
1	308773	9100	3
1	310420	9150	3
1	312189	9200	3
1	313903	9250	3
1	315574	9300	3
1	317357	9350	3
1	319125	9400	3
1	320806	9450	3
1	322551	9500	3
1	324305	9550	3
1	325928	9600	3
1	327669	9650	3
1	329451	9700	3
1	331098	9750	3
1	332891	9800	3
1	334625	9850	3
1	336316	9900	3
1	338081	9950	3
1	339863	10000	3
1	341492	10050	3
1	343261	10100	3
1	345019	10150	3
1	346700	10200	3
1	348449	10250	3
1	350231	10300	3
1	351888	10350	3
1	353681	10400	3
1	355463	10450	3
1	357086	10500	3
1	358855	10550	3
1	360637	10600	3
1	362328	10650	3
1	364087	10700	3
1	365889	10750	3
1	367540	10800	3
1	369319	10850	3
1	371056	10900	3
