version 2
run Dxps-0-20110728-08:50:17-36456
attr configname Dxps
attr datetime 20110728-08:50:17
attr experiment Dxps
attr inifile /Users/hill/sim/repos/simulations/dxps.ini
attr iterationvars ""
attr iterationvars2 $repetition=0
attr measurement ""
attr network oversim.underlay.simpleunderlay.SimpleUnderlayNetwork
attr processid 36456
attr repetition 0
attr replication #0
attr resultdir results
attr runnumber 0
attr seedset 0

vector 1  SimpleUnderlayNetwork.globalObserver.globalStatistics  "GlobalNodeList: Number of nodes"  ETV
1	1	0	0
1	5024	50	10
1	8959	100	10
1	13426	150	10
1	18897	200	10
1	25362	250	10
1	32303	300	10
1	40782	350	10
1	50088	400	10
1	58249	450	10
1	66719	500	10
1	75370	550	10
1	85161	600	10
1	95674	650	10
1	105401	700	10
1	115118	750	10
1	125945	800	10
1	136989	850	10
1	147854	900	10
1	159468	950	10
1	171262	1000	10
1	182703	1050	10
1	194772	1100	10
1	207042	1150	10
1	218928	1200	10
1	231537	1250	10
1	244056	1300	10
1	256154	1350	10
1	268804	1400	10
1	281345	1450	10
1	293447	1500	10
1	306090	1550	10
1	318595	1600	10
1	330707	1650	10
1	343360	1700	10
1	355877	1750	10
1	367965	1800	10
1	381641	1850	10
1	395489	1900	10
1	407587	1950	10
1	420230	2000	10
1	432752	2050	10
1	444877	2100	10
1	457526	2150	10
1	470043	2200	10
1	482127	2250	10
1	494774	2300	10
1	507275	2350	10
1	519367	2400	10
1	532008	2450	10
1	544523	2500	10
1	556599	2550	10
1	569280	2600	10
1	581795	2650	10
1	593893	2700	10
1	606552	2750	10
1	619079	2800	10
1	631181	2850	10
1	643834	2900	10
1	657439	2950	10
1	670670	3000	10
1	683335	3050	10
1	696552	3100	10
1	710022	3150	10
1	722842	3200	10
1	735377	3250	10
1	747449	3300	10
1	760108	3350	10
1	772631	3400	10
1	784721	3450	10
1	797384	3500	10
1	809909	3550	10
1	822003	3600	10
1	834660	3650	10
1	847169	3700	10
1	859257	3750	10
1	871930	3800	10
1	884439	3850	10
1	896521	3900	10
1	909174	3950	10
1	921709	4000	10
1	933825	4050	10
1	946494	4100	10
1	959003	4150	10
1	971105	4200	10
1	983762	4250	10
1	996295	4300	10
1	1008379	4350	10
1	1021012	4400	10
1	1033549	4450	10
1	1045633	4500	10
1	1058300	4550	10
1	1070821	4600	10
1	1082917	4650	10
1	1095582	4700	10
1	1108119	4750	10
1	1120204	4800	10
1	1132864	4850	10
1	1145373	4900	10
1	1157449	4950	10
1	1170080	5000	10
1	1183953	5050	10
1	1196918	5100	10
1	1209565	5150	10
1	1222094	5200	10
1	1234192	5250	10
1	1246831	5300	10
1	1259356	5350	10
1	1271450	5400	10
1	1284101	5450	10
1	1296602	5500	10
1	1308712	5550	10
1	1321355	5600	10
1	1333886	5650	10
1	1345970	5700	10
1	1358621	5750	10
1	1371140	5800	10
1	1383236	5850	10
1	1395875	5900	10
1	1408388	5950	10
1	1420492	6000	10
1	1434542	6050	10
1	1448463	6100	10
1	1460583	6150	10
1	1473228	6200	10
1	1485753	6250	10
1	1497825	6300	10
1	1510474	6350	10
1	1523011	6400	10
1	1535081	6450	10
1	1547760	6500	10
1	1560265	6550	10
1	1572355	6600	10
1	1585036	6650	10
1	1597563	6700	10
1	1609655	6750	10
1	1622312	6800	10
1	1634835	6850	10
1	1646919	6900	10
1	1659572	6950	10
1	1672079	7000	10
1	1684205	7050	10
1	1697087	7100	10
1	1710978	7150	10
1	1724513	7200	10
1	1737156	7250	10
1	1749689	7300	10
1	1761821	7350	10
1	1775667	7400	10
1	1789271	7450	10
1	1801367	7500	10
1	1814022	7550	10
1	1826535	7600	10
1	1838618	7650	10
1	1851258	7700	10
1	1863771	7750	10
1	1875875	7800	10
1	1888532	7850	10
1	1901047	7900	10
1	1913143	7950	10
1	1925786	8000	10
1	1939671	8050	10
1	1953905	8100	10
1	1967629	8150	10
1	1980142	8200	10
1	1992218	8250	10
1	2004860	8300	10
1	2017408	8350	10
1	2029505	8400	10
1	2042151	8450	10
1	2054676	8500	10
1	2066746	8550	10
1	2079377	8600	10
1	2093414	8650	10
1	2106251	8700	10
1	2118896	8750	10
1	2131433	8800	10
1	2143531	8850	10
1	2156180	8900	10
1	2168709	8950	10
1	2180812	9000	10
1	2193480	9050	10
1	2206001	9100	10
1	2218085	9150	10
1	2230742	9200	10
1	2243267	9250	10
1	2255350	9300	10
1	2268004	9350	10
1	2280537	9400	10
1	2292619	9450	10
1	2305270	9500	10
1	2317805	9550	10
1	2329903	9600	10
1	2342566	9650	10
1	2355073	9700	10
1	2367189	9750	10
1	2379846	9800	10
1	2392365	9850	10
1	2404465	9900	10
1	2417104	9950	10
1	2429601	10000	10
1	2441691	10050	10
1	2454322	10100	10
1	2466849	10150	10
1	2478935	10200	10
1	2491594	10250	10
1	2504115	10300	10
1	2516193	10350	10
1	2528848	10400	10
1	2541377	10450	10
1	2553481	10500	10
1	2566120	10550	10
1	2578645	10600	10
1	2590751	10650	10
1	2603388	10700	10
1	2615909	10750	10
1	2627977	10800	10
1	2640620	10850	10
1	2653163	10900	10
1	2665247	10950	10
1	2677912	11000	10
1	2690447	11050	10
1	2702506	11100	10
1	2715184	11150	10
1	2727697	11200	10
1	2739805	11250	10
1	2752478	11300	10
1	2766508	11350	10
1	2779896	11400	10
1	2792535	11450	10
1	2805457	11500	10
1	2819118	11550	10
1	2832392	11600	10
1	2844931	11650	10
1	2857029	11700	10
1	2869684	11750	10
1	2882227	11800	10
1	2894293	11850	10
1	2906938	11900	10
1	2919473	11950	10
1	2931559	12000	10
1	2944204	12050	10
1	2956753	12100	10
1	2968841	12150	10
1	2981494	12200	10
1	2994013	12250	10
1	3006111	12300	10
1	3018754	12350	10
1	3031305	12400	10
1	3043409	12450	10
1	3056040	12500	10
1	3068589	12550	10
1	3080695	12600	10
1	3093364	12650	10
1	3105881	12700	10
1	3117979	12750	10
1	3130650	12800	10
1	3143185	12850	10
1	3155281	12900	10
1	3167940	12950	10
1	3180453	13000	10
1	3192505	13050	10
1	3205169	13100	10
1	3217689	13150	10
1	3229765	13200	10
1	3242408	13250	10
1	3254943	13300	10
1	3267039	13350	10
1	3279700	13400	10
1	3292215	13450	10
1	3304311	13500	10
1	3316960	13550	10
1	3329483	13600	10
1	3341568	13650	10
1	3354236	13700	10
1	3366763	13750	10
1	3378835	13800	10
1	3391484	13850	10
1	3404005	13900	10
1	3416081	13950	10
1	3428746	14000	10
1	3441267	14050	10
1	3453359	14100	10
1	3466018	14150	10
1	3478545	14200	10
1	3490649	14250	10
1	3503270	14300	10
1	3515789	14350	10
1	3527879	14400	10
1	3540532	14450	10
1	3553048	14500	10
1	3566682	14550	10
1	3580162	14600	10
1	3592686	14650	10
1	3604793	14700	10
1	3617430	14750	10
1	3629965	14800	10
1	3642073	14850	10
1	3654718	14900	10
1	3667257	14950	10
1	3679327	15000	10
1	3691963	15050	10
1	3704463	15100	10
1	3716565	15150	10
1	3729210	15200	10
1	3741725	15250	10
1	3753823	15300	10
1	3766486	15350	10
1	3779035	15400	10
1	3791113	15450	10
1	3803784	15500	10
1	3816305	15550	10
1	3828387	15600	10
1	3841054	15650	10
1	3853583	15700	10
1	3865655	15750	10
1	3878288	15800	10
1	3890795	15850	10
1	3902871	15900	10
1	3915502	15950	10
1	3928658	16000	10
1	3942125	16050	10
1	3955001	16100	10
1	3967524	16150	10
1	3979588	16200	10
1	3992235	16250	10
1	4004754	16300	10
1	4016834	16350	10
1	4029491	16400	10
1	4042520	16450	10
1	4055875	16500	10
1	4068975	16550	10
1	4081486	16600	10
1	4094269	16650	10
1	4108305	16700	10
1	4121048	16750	10
1	4133161	16800	10
1	4145816	16850	10
1	4158337	16900	10
1	4170437	16950	10
1	4183108	17000	10
1	4195643	17050	10
1	4207735	17100	10
1	4220394	17150	10
1	4232905	17200	10
1	4245722	17250	10
1	4260026	17300	10
1	4272919	17350	10
1	4285005	17400	10
1	4297670	17450	10
1	4310205	17500	10
1	4322303	17550	10
1	4334952	17600	10
1	4347485	17650	10
1	4359569	17700	10
1	4372224	17750	10
1	4384757	17800	10
1	4396829	17850	10
1	4409478	17900	10
1	4421965	17950	10
1	4434069	18000	10
1	4446699	18050	10
1	4459245	18100	10
1	4471323	18150	10
1	4483992	18200	10
1	4496517	18250	10
1	4508603	18300	10
1	4521248	18350	10
1	4533755	18400	10
1	4545855	18450	10
1	4558526	18500	10
1	4571055	18550	10
1	4583139	18600	10
1	4595796	18650	10
1	4608339	18700	10
1	4620443	18750	10
1	4633120	18800	10
1	4645661	18850	10
1	4657755	18900	10
1	4670432	18950	10
1	4682969	19000	10
1	4695045	19050	10
1	4707702	19100	10
1	4720219	19150	10
1	4732307	19200	10
1	4744986	19250	10
1	4757547	19300	10
1	4769631	19350	10
1	4783666	19400	10
1	4797372	19450	10
1	4809454	19500	10
1	4822097	19550	10
1	4834632	19600	10
1	4846726	19650	10
1	4859389	19700	10
1	4871900	19750	10
1	4883971	19800	10
1	4896603	19850	10
1	4909128	19900	10
1	4921254	19950	10
1	4933913	20000	10
1	4946428	20050	10
1	4958516	20100	10
1	4971163	20150	10
1	4985244	20200	10
1	4998647	20250	10
1	5012914	20300	10
1	5025974	20350	10
1	5038044	20400	10
1	5051915	20450	10
1	5065563	20500	10
1	5077665	20550	10
1	5091232	20600	10
1	5105098	20650	10
1	5117198	20700	10
1	5129891	20750	10
1	5142432	20800	10
1	5154536	20850	10
1	5167193	20900	10
1	5179708	20950	10
1	5191784	21000	10
1	5204473	21050	10
1	5216994	21100	10
1	5229112	21150	10
1	5241773	21200	10
1	5254316	21250	10
1	5266418	21300	10
1	5279055	21350	10
1	5292369	21400	10
1	5310102	21450	10
1	5324721	21500	10
1	5337258	21550	10
1	5349360	21600	10
1	5362017	21650	10
1	5375343	21700	10
1	5388822	21750	10
1	5401504	21800	10
1	5413997	21850	10
1	5426082	21900	10
1	5439184	21950	10
1	5453080	22000	10
1	5465657	22050	10
1	5478300	22100	10
1	5490823	22150	10
1	5502913	22200	10
1	5515586	22250	10
1	5528085	22300	10
1	5540191	22350	10
1	5552834	22400	10
1	5565367	22450	10
1	5577471	22500	10
1	5590116	22550	10
1	5602853	22600	10
1	5614915	22650	10
1	5627574	22700	10
1	5640117	22750	10
1	5652221	22800	10
1	5664876	22850	10
1	5677389	22900	10
1	5689489	22950	10
1	5702134	23000	10
1	5714649	23050	10
1	5726745	23100	10
1	5739396	23150	10
1	5751903	23200	10
1	5763973	23250	10
1	5776618	23300	10
1	5789123	23350	10
1	5801219	23400	10
1	5813855	23450	10
1	5826379	23500	10
1	5838473	23550	10
1	5851126	23600	10
1	5863639	23650	10
1	5875723	23700	10
1	5888400	23750	10
1	5900927	23800	10
1	5913023	23850	10
1	5925676	23900	10
1	5938183	23950	10
1	5950283	24000	10
1	5962928	24050	10
1	5975449	24100	10
1	5987547	24150	10
1	6000186	24200	10
1	6012707	24250	10
1	6024771	24300	10
1	6037430	24350	10
1	6049931	24400	10
1	6062043	24450	10
1	6074700	24500	10
1	6087207	24550	10
1	6099302	24600	10
1	6111958	24650	10
1	6124493	24700	10
1	6136565	24750	10
1	6149208	24800	10
1	6164375	24850	10
1	6178587	24900	10
1	6191242	24950	10
1	6203799	25000	10
1	6215915	25050	10
1	6228576	25100	10
1	6241089	25150	10
1	6253165	25200	10
1	6265800	25250	10
1	6278307	25300	10
1	6290399	25350	10
1	6303052	25400	10
1	6315589	25450	10
1	6327693	25500	10
1	6340352	25550	10
1	6352895	25600	10
1	6364983	25650	10
1	6377638	25700	10
1	6390139	25750	10
1	6402209	25800	10
1	6414894	25850	10
1	6427421	25900	10
1	6439509	25950	10
1	6452168	26000	10
1	6464689	26050	10
1	6476777	26100	10
1	6489432	26150	10
1	6503817	26200	10
1	6518304	26250	10
1	6534359	26300	10
1	6547310	26350	10
1	6559384	26400	10
1	6572033	26450	10
1	6584552	26500	10
1	6596628	26550	10
1	6609293	26600	10
1	6622711	26650	10
1	6636188	26700	10
1	6648868	26750	10
1	6661354	26800	10
1	6673441	26850	10
1	6686086	26900	10
1	6698613	26950	10
1	6710667	27000	10
1	6723336	27050	10
1	6735835	27100	10
1	6747939	27150	10
1	6761780	27200	10
1	6775356	27250	10
1	6787430	27300	10
1	6800083	27350	10
1	6812616	27400	10
1	6824682	27450	10
1	6837321	27500	10
1	6849818	27550	10
1	6861900	27600	10
1	6874553	27650	10
1	6887058	27700	10
1	6900563	27750	10
1	6914229	27800	10
1	6926746	27850	10
1	6938868	27900	10
1	6951525	27950	10
1	6964052	28000	10
1	6976136	28050	10
1	6988811	28100	10
1	7001340	28150	10
1	7013436	28200	10
1	7026105	28250	10
1	7038632	28300	10
1	7050702	28350	10
1	7063375	28400	10
1	7075896	28450	10
1	7088004	28500	10
1	7100659	28550	10
1	7113182	28600	10
1	7125264	28650	10
1	7138453	28700	10
1	7152358	28750	10
1	7164850	28800	10
1	7177498	28850	10
1	7190019	28900	10
1	7202109	28950	10
1	7214754	29000	10
1	7227269	29050	10
1	7239355	29100	10
1	7252032	29150	10
1	7264527	29200	10
1	7276637	29250	10
1	7289282	29300	10
1	7301803	29350	10
1	7313865	29400	10
1	7326524	29450	10
1	7339057	29500	10
1	7351139	29550	10
1	7363806	29600	10
1	7376327	29650	10
1	7388425	29700	10
1	7401057	29750	10
1	7413601	29800	10
1	7425677	29850	10
1	7438342	29900	10
1	7450845	29950	10
1	7462937	30000	10
1	7475568	30050	10
1	7488089	30100	10
1	7500191	30150	10
1	7512822	30200	10
1	7525343	30250	10
1	7537433	30300	10
1	7550078	30350	10
1	7562607	30400	10
1	7574705	30450	10
1	7588012	30500	10
1	7602013	30550	10
