version 2
run Dxps-0-20110708-23:01:47-11448
attr configname Dxps
attr datetime 20110708-23:01:47
attr experiment Dxps
attr inifile /Users/hill/sim/repos/simulations/dxps.ini
attr iterationvars ""
attr iterationvars2 $repetition=0
attr measurement ""
attr network oversim.underlay.simpleunderlay.SimpleUnderlayNetwork
attr processid 11448
attr repetition 0
attr replication #0
attr resultdir results
attr runnumber 0
attr seedset 0

vector 1  SimpleUnderlayNetwork.globalObserver.globalStatistics  "GlobalNodeList: Number of nodes"  ETV
1	1	0	0
1	918	50	3
1	1949	100	3
1	3047	150	3
1	4420	200	3
1	5802	250	3
1	7103	300	3
1	8566	350	3
1	10027	400	3
1	11436	450	3
1	12884	500	3
1	14369	550	3
1	15779	600	3
1	17251	650	3
1	18750	700	3
1	20207	750	3
1	21788	800	3
1	23350	850	3
1	24833	900	3
1	26371	950	3
1	27899	1000	3
1	29312	1050	3
1	30861	1100	3
1	32462	1150	3
1	34038	1200	3
1	35706	1250	3
1	37409	1300	3
1	38951	1350	3
1	40785	1400	3
1	42584	1450	3
1	44244	1500	3
1	46037	1550	3
1	47809	1600	3
1	49476	1650	3
1	51211	1700	3
1	52993	1750	3
1	54598	1800	3
1	56381	1850	3
1	58173	1900	3
1	59854	1950	3
1	61623	2000	3
1	63429	2050	3
1	65086	2100	3
1	66883	2150	3
1	68617	2200	3
1	70250	2250	3
1	72023	2300	3
1	73767	2350	3
1	75424	2400	3
1	77213	2450	3
1	78957	2500	3
1	80642	2550	3
1	82380	2600	3
1	84176	2650	3
1	85850	2700	3
1	87647	2750	3
1	89430	2800	3
1	91080	2850	3
1	92863	2900	3
1	94669	2950	3
1	96336	3000	3
1	98081	3050	3
1	99839	3100	3
1	101534	3150	3
1	103265	3200	3
1	105005	3250	3
1	106676	3300	3
1	108445	3350	3
1	110217	3400	3
1	111898	3450	3
1	113691	3500	3
1	115487	3550	3
1	117182	3600	3
1	118979	3650	3
1	120699	3700	3
1	122360	3750	3
1	124091	3800	3
