version 2
run Dxps-0-20110729-14:07:47-6157
attr configname Dxps
attr datetime 20110729-14:07:47
attr experiment Dxps
attr inifile dxps.ini
attr iterationvars ""
attr iterationvars2 $repetition=0
attr measurement ""
attr network oversim.underlay.simpleunderlay.SimpleUnderlayNetwork
attr processid 6157
attr repetition 0
attr replication #0
attr resultdir results
attr runnumber 0
attr seedset 0

vector 1  SimpleUnderlayNetwork.globalObserver.globalStatistics  "GlobalNodeList: Number of nodes"  ETV
1	1	0	0
1	4602	50	10
1	7737	100	10
1	11377	150	10
1	15657	200	10
1	20151	250	10
1	24766	300	10
1	29565	350	10
1	34436	400	10
1	39707	450	10
1	45510	500	10
1	51475	550	10
1	58018	600	10
1	65005	650	10
1	72009	700	10
1	79304	750	10
1	87256	800	10
1	95248	850	10
1	103518	900	10
1	112340	950	10
1	121058	1000	10
1	129851	1050	10
1	139001	1100	10
1	148236	1150	10
1	157714	1200	10
1	167823	1250	10
1	177953	1300	10
1	188060	1350	10
1	198904	1400	10
1	209515	1450	10
1	220123	1500	10
1	231164	1550	10
1	241955	1600	10
1	252662	1650	10
1	263839	1700	10
1	274815	1750	10
1	285718	1800	10
1	297179	1850	10
1	308374	1900	10
1	319548	1950	10
1	331220	2000	10
1	342573	2050	10
1	353842	2100	10
1	365523	2150	10
1	376876	2200	10
