version 2
run General-0-20110708-18:54:31-6571
attr configname General
attr datetime 20110708-18:54:31
attr experiment General
attr inifile /Users/hill/sim/repos/simulations/default.ini
attr iterationvars ""
attr iterationvars2 $repetition=0
attr measurement ""
attr network oversim.underlay.simpleunderlay.SimpleUnderlayNetwork
attr processid 6571
attr repetition 0
attr replication #0
attr resultdir results
attr runnumber 0
attr seedset 0

vector 1  SimpleUnderlayNetwork.globalObserver.globalStatistics  "GlobalNodeList: Number of nodes"  ETV
vector 2  SimpleUnderlayNetwork.globalObserver.globalStatistics  "KBRTestApp: One-way Hop Count"  ETV
vector 3  SimpleUnderlayNetwork.globalObserver.globalStatistics  "KBRTestApp: One-way Latency"  ETV
1	2010	50	10
1	3141	100	10
1	5112	150	10
1	6229	200	10
1	8182	250	10
1	9251	300	10
1	10450	350	10
1	12255	400	10
1	13472	450	10
1	15295	500	10
1	16485	550	10
1	17583	600	10
1	19516	650	10
1	20609	700	10
1	22574	750	10
1	23661	800	10
1	25584	850	10
1	26677	900	10
1	27906	950	10
1	29705	1000	10
1	30892	1050	10
1	32715	1100	10
1	33956	1150	10
1	35027	1200	10
1	36960	1250	10
1	38029	1300	10
1	39994	1350	10
1	41087	1400	10
1	43058	1450	10
1	44139	1500	10
1	45332	1550	10
1	47155	1600	10
1	48366	1650	10
1	50177	1700	10
1	51406	1750	10
1	52483	1800	10
1	54410	1850	10
1	55509	1900	10
1	57420	1950	10
1	58489	2000	10
1	60430	2050	10
1	61517	2100	10
1	62740	2150	10
1	64557	2200	10
1	65762	2250	10
1	67591	2300	10
1	68790	2350	10
1	69897	2400	10
1	71866	2450	10
1	72959	2500	10
1	74906	2550	10
1	75927	2600	10
1	77868	2650	10
1	78967	2700	10
1	80214	2750	10
1	82031	2800	10
1	83248	2850	10
1	84999	2900	10
1	86240	2950	10
1	87335	3000	10
1	89298	3050	10
1	90397	3100	10
1	92326	3150	10
1	93443	3200	10
1	95384	3250	10
1	96453	3300	10
1	97670	3350	10
1	99505	3400	10
1	100752	3450	10
1	102563	3500	10
1	103786	3550	10
1	104881	3600	10
1	106820	3650	10
1	107877	3700	10
1	109806	3750	10
1	110884	3800	10
1	112822	3850	10
1	113909	3900	10
1	115138	3950	10
1	116961	4000	10
1	118160	4050	10
1	119965	4100	10
1	121176	4150	10
1	122283	4200	10
1	124222	4250	10
1	125297	4300	10
1	127214	4350	10
1	128343	4400	10
1	130257	4450	10
1	131341	4500	10
1	132534	4550	10
1	134399	4600	10
1	135634	4650	10
1	137439	4700	10
1	138641	4750	10
1	139709	4800	10
1	141600	4850	10
1	142687	4900	10
1	144670	4950	10
1	145787	5000	10
1	147692	5050	10
1	148737	5100	10
1	149924	5150	10
1	151765	5200	10
1	153000	5250	10
1	154817	5300	10
1	156034	5350	10
1	157129	5400	10
1	159062	5450	10
1	160131	5500	10
1	162084	5550	10
1	163153	5600	10
1	165118	5650	10
1	166193	5700	10
1	167428	5750	10
1	169221	5800	10
1	170438	5850	10
1	172243	5900	10
1	173442	5950	10
1	174543	6000	10
1	176470	6050	10
1	177515	6100	10
1	179456	6150	10
1	180573	6200	10
1	182472	6250	10
1	183541	6300	10
1	184746	6350	10
1	186563	6400	10
1	187786	6450	10
1	189597	6500	10
1	190772	6550	10
1	191837	6600	10
1	193788	6650	10
1	194869	6700	10
1	196828	6750	10
1	197873	6800	10
1	199832	6850	10
1	200925	6900	10
1	202136	6950	10
1	203953	7000	10
1	205194	7050	10
1	207023	7100	10
1	208216	7150	10
1	209287	7200	10
1	211226	7250	10
1	212313	7300	10
1	214242	7350	10
1	215329	7400	10
1	217276	7450	10
1	218357	7500	10
1	219604	7550	10
1	221439	7600	10
1	222662	7650	10
1	224437	7700	10
1	225630	7750	10
1	226719	7800	10
1	228670	7850	10
1	229751	7900	10
1	231704	7950	10
1	232797	8000	10
1	234744	8050	10
1	235777	8100	10
1	236976	8150	10
1	238817	8200	10
1	240016	8250	10
1	241857	8300	10
1	243068	8350	10
1	244151	8400	10
1	246084	8450	10
1	247141	8500	10
1	249106	8550	10
1	250187	8600	10
1	252128	8650	10
1	253215	8700	10
1	254414	8750	10
1	256207	8800	10
1	257466	8850	10
1	259271	8900	10
1	260500	8950	10
1	261583	9000	10
1	263522	9050	10
1	264639	9100	10
1	266586	9150	10
1	267661	9200	10
1	269596	9250	10
1	270707	9300	10
1	271906	9350	10
1	273717	9400	10
1	274952	9450	10
1	276743	9500	10
1	277968	9550	10
1	279081	9600	10
1	281008	9650	10
1	282095	9700	10
1	284042	9750	10
1	285102	9800	10
1	287064	9850	10
1	288169	9900	10
1	289422	9950	10
1	291233	10000	10
1	292420	10050	10
1	294231	10100	10
1	295436	10150	10
1	296537	10200	10
1	298452	10250	10
1	299527	10300	10
1	301438	10350	10
1	302537	10400	10
1	304496	10450	10
1	305583	10500	10
1	306782	10550	10
1	308611	10600	10
1	309804	10650	10
1	311633	10700	10
1	312832	10750	10
1	313909	10800	10
1	315854	10850	10
1	316959	10900	10
1	318930	10950	10
1	320020	11000	10
1	321991	11050	10
1	323051	11100	10
1	324244	11150	10
1	326067	11200	10
1	327296	11250	10
1	329119	11300	10
1	330360	11350	10
1	331413	11400	10
1	333346	11450	10
1	334445	11500	10
1	336386	11550	10
1	337473	11600	10
1	339420	11650	10
1	340501	11700	10
1	341718	11750	10
1	343523	11800	10
1	344752	11850	10
1	346563	11900	10
1	347768	11950	10
1	348839	12000	10
1	350814	12050	10
1	351907	12100	10
1	353890	12150	10
1	354965	12200	10
1	356906	12250	10
1	357939	12300	10
1	359156	12350	10
1	360985	12400	10
1	362208	12450	10
1	364031	12500	10
1	365236	12550	10
1	366319	12600	10
1	368270	12650	10
1	369327	12700	10
1	371292	12750	10
1	372379	12800	10
1	374284	12850	10
1	375365	12900	10
1	376582	12950	10
1	378405	13000	10
1	379664	13050	10
1	381487	13100	10
1	382698	13150	10
1	383769	13200	10
1	385672	13250	10
1	386777	13300	10
1	388742	13350	10
1	389847	13400	10
1	391806	13450	10
1	392869	13500	10
1	394068	13550	10
1	395843	13600	10
1	397090	13650	10
1	398913	13700	10
1	400118	13750	10
1	401183	13800	10
1	403128	13850	10
1	404203	13900	10
1	406150	13950	10
1	407237	14000	10
1	409208	14050	10
1	410307	14100	10
1	411536	14150	10
1	413317	14200	10
1	414498	14250	10
1	416345	14300	10
1	417562	14350	10
1	418675	14400	10
1	420578	14450	10
1	421659	14500	10
1	423630	14550	10
1	424741	14600	10
1	426658	14650	10
1	427745	14700	10
1	428938	14750	10
1	430779	14800	10
1	431978	14850	10
1	433801	14900	10
1	434976	14950	10
1	436065	15000	10
1	437986	15050	10
1	439097	15100	10
1	441032	15150	10
1	442131	15200	10
1	444096	15250	10
1	445153	15300	10
1	446358	15350	10
1	448181	15400	10
1	449422	15450	10
1	451257	15500	10
1	452480	15550	10
1	453545	15600	10
1	455484	15650	10
1	456571	15700	10
1	458506	15750	10
1	459617	15800	10
1	461552	15850	10
1	462627	15900	10
1	463796	15950	10
1	465643	16000	10
1	466860	16050	10
1	468671	16100	10
1	469870	16150	10
1	470989	16200	10
1	472880	16250	10
1	473985	16300	10
1	475926	16350	10
1	476995	16400	10
1	478930	16450	10
1	480035	16500	10
1	481258	16550	10
1	483069	16600	10
1	484256	16650	10
1	486079	16700	10
1	487320	16750	10
1	488415	16800	10
1	490324	16850	10
1	491393	16900	10
1	493316	16950	10
1	494421	17000	10
1	496347	17050	10
1	497431	17100	10
1	498606	17150	10
1	500417	17200	10
1	501670	17250	10
1	503481	17300	10
1	504704	17350	10
1	505733	17400	10
1	507660	17450	10
1	508753	17500	10
1	510682	17550	10
1	511799	17600	10
1	513740	17650	10
1	514809	17700	10
1	515996	17750	10
1	517825	17800	10
1	519006	17850	10
1	520847	17900	10
1	522082	17950	10
1	523129	18000	10
1	525056	18050	10
1	526155	18100	10
1	528108	18150	10
1	529189	18200	10
1	531118	18250	10
1	532139	18300	10
1	533356	18350	10
1	535167	18400	10
1	536360	18450	10
1	538165	18500	10
1	539388	18550	10
1	540459	18600	10
1	542398	18650	10
1	543479	18700	10
1	545408	18750	10
1	546519	18800	10
1	548472	18850	10
1	549565	18900	10
1	550776	18950	10
1	552581	19000	10
1	553792	19050	10
1	555609	19100	10
1	556820	19150	10
1	557933	19200	10
1	559884	19250	10
1	560941	19300	10
1	562864	19350	10
1	563915	19400	10
1	565880	19450	10
1	566973	19500	10
1	568232	19550	10
1	570013	19600	10
1	571206	19650	10
1	573041	19700	10
1	574276	19750	10
1	575383	19800	10
1	577280	19850	10
1	578325	19900	10
1	580272	19950	10
1	581353	20000	10
1	583288	20050	10
1	584345	20100	10
1	585550	20150	10
1	587331	20200	10
1	588536	20250	10
1	590335	20300	10
1	591582	20350	10
1	592689	20400	10
1	594622	20450	10
1	595679	20500	10
1	597614	20550	10
1	598707	20600	10
1	600666	20650	10
1	601735	20700	10
1	602982	20750	10
1	604781	20800	10
1	605974	20850	10
1	607815	20900	10
1	609008	20950	10
1	610091	21000	10
1	612000	21050	10
1	613081	21100	10
1	615034	21150	10
1	616139	21200	10
1	618056	21250	10
1	619155	21300	10
1	620354	21350	10
1	622123	21400	10
1	623382	21450	10
1	625196	21500	10
1	626416	21550	10
1	627493	21600	10
1	629468	21650	10
1	630543	21700	10
1	632472	21750	10
1	633568	21800	10
1	635488	21850	10
1	636599	21900	10
1	637828	21950	10
1	639633	22000	10
1	640874	22050	10
1	642697	22100	10
1	643884	22150	10
1	644949	22200	10
1	646894	22250	10
1	648011	22300	10
1	649940	22350	10
1	651009	22400	10
1	652944	22450	10
1	653995	22500	10
1	655224	22550	10
1	657023	22600	10
1	658258	22650	10
1	660051	22700	10
1	661262	22750	10
1	662345	22800	10
1	664284	22850	10
1	665377	22900	10
1	667306	22950	10
1	668411	23000	10
1	670388	23050	10
1	671487	23100	10
1	672668	23150	10
1	674455	23200	10
1	675696	23250	10
1	677519	23300	10
1	678748	23350	10
1	679825	23400	10
1	681752	23450	10
1	682863	23500	10
1	684792	23550	10
1	685843	23600	10
1	687814	23650	10
1	688913	23700	10
1	690166	23750	10
1	691968	23800	10
1	693188	23850	10
1	694999	23900	10
1	696216	23950	10
1	697335	24000	10
1	699268	24050	10
1	700355	24100	10
1	702332	24150	10
1	703419	24200	10
1	705354	24250	10
1	706393	24300	10
1	707640	24350	10
1	709463	24400	10
1	710716	24450	10
1	712527	24500	10
1	713732	24550	10
2	2042	50.961826549	3
2	2086	53.06989016	2
2	2109	53.503035925	3
2	2258	61.329540896	3
2	2303	62.190138383	3
2	2351	63.12222908	3
2	2398	63.637958592	2
2	2470	67.01579387	3
2	2543	68.750328688	3
2	2583	69.276706787	3
2	3293	103.866914807	3
2	3482	112.667124382	3
2	3516	113.627689514	3
2	3560	115.560387137	3
2	3585	116.424273006	3
2	3891	121.705521421	2
2	4309	126.144882579	0
2	4501	127.670181926	2
2	4528	127.855760402	3
2	4708	130.48284306	2
2	5263	159.147016155	3
2	5457	166.66929545	2
2	5591	171.857983385	3
2	5671	175.250218266	3
2	5685	175.702770882	3
2	5762	179.936661524	3
2	5825	181.812989377	2
2	5967	185.840253559	3
2	6009	187.836569928	0
2	6036	188.31541333	3
2	6568	214.433465966	0
2	6866	227.201060182	3
2	6899	227.603463556	3
2	6902	227.636114558	2
2	7351	241.439786402	3
2	7705	243.652527924	2
2	7742	244.839426591	2
2	7996	247.606113411	3
2	8009	247.734019895	3
2	8214	251.127119996	3
2	8499	264.57112738	3
2	8778	279.97956787	2
2	8832	281.4237867	2
2	9073	289.567624951	3
2	9212	298.269637368	3
2	9236	298.864200571	2
2	9277	300.193459464	0
2	9512	308.88966182	2
2	9571	311.470979943	3
2	9680	317.857517761	3
2	9996	329.240562175	3
2	10190	341.041551484	2
2	10382	347.601919977	3
2	10432	349.032429234	0
2	10552	356.514293924	3
2	10585	357.737901119	2
2	10613	358.667325294	2
2	10797	360.631443766	3
2	11661	369.616363121	3
2	11742	373.958499877	3
2	12129	391.857912405	2
2	12198	396.674437286	0
2	12370	403.104941001	3
2	12566	410.049014917	3
2	12635	413.819304861	3
2	12724	419.404557158	2
2	12890	424.114920139	3
2	12902	424.741912703	2
2	13069	431.990383761	2
2	13096	432.424777053	3
2	13567	455.180958506	3
2	13623	458.553536969	2
2	13869	467.945815945	3
2	13976	472.180010583	3
2	14029	474.835505193	3
2	14111	479.700908532	2
2	15148	490.810692341	2
2	15156	490.962404044	2
2	15210	493.838800557	2
2	15394	502.687347635	2
2	15616	512.374849464	0
2	15909	525.415200253	3
2	15974	528.35763567	2
2	16034	529.096780286	3
2	16131	536.689824748	0
2	16313	543.381379545	0
2	16474	549.522676495	3
2	16507	550.427781925	3
2	16553	552.903273479	3
2	16887	568.059353307	3
2	16965	570.403770094	2
2	17166	581.727227635	2
2	17183	581.937554517	3
2	17423	590.511354192	3
2	17560	598.84638751	3
2	18445	608.18558458	3
2	18497	608.649045041	3
2	18625	609.531812171	0
2	18628	609.563043974	3
2	19053	629.693095237	0
2	19064	629.900929276	3
2	19185	637.187055996	3
2	19420	646.506740994	3
2	19604	654.984076952	3
2	19645	655.920768351	3
2	19648	655.982481287	2
2	19931	667.619128101	3
2	20045	672.775218126	3
2	20085	674.641686207	2
2	20342	685.454948053	2
2	20469	690.131636022	3
2	20619	700.028315547	2
2	20713	702.332910953	3
2	20914	709.49782407	3
2	20996	714.569240682	2
2	21056	717.564886381	3
2	22172	734.401573885	3
2	22178	734.76543169	0
2	22243	738.113510466	3
2	22420	743.547004262	3
2	22478	746.504233837	2
2	22775	761.214682423	2
2	22784	761.651460756	3
2	23025	769.377518025	3
2	23178	779.046208862	3
2	23429	788.550005782	2
2	23483	789.701849443	3
2	23523	791.900383984	2
2	23583	794.200881998	3
2	23805	803.752270039	2
2	23975	810.916829332	3
2	24042	815.067847085	0
2	24298	825.850007049	3
2	24427	831.103848531	3
2	24968	842.945712642	3
2	25180	844.687489408	2
2	25623	851.859800855	3
2	25676	853.966495078	3
2	25722	856.039587334	3
2	25959	866.365261142	0
2	26122	873.941136819	2
2	26161	875.142558409	3
2	26463	888.423024608	3
2	26559	892.96023353	2
2	26657	898.502871245	2
2	26870	906.237575411	3
2	26962	908.910745177	3
2	26994	909.253711773	3
2	27216	921.998373521	3
2	27352	926.301380615	3
2	27498	932.360115132	3
2	27603	938.863671099	2
2	27810	946.163951319	3
2	27932	951.703701832	2
2	28029	957.02247732	3
2	28597	963.37502771	3
2	28756	966.256935594	2
2	29175	974.662700673	0
2	29405	984.224024473	2
2	29539	989.174335272	2
2	29642	996.211411186	2
2	29681	998.3599382	0
2	29850	1003.515468924	3
2	30046	1012.491667131	3
2	30237	1022.342607691	0
2	30337	1025.414681314	2
2	30562	1037.461285699	3
2	30603	1039.028852953	3
2	30614	1039.174462792	0
2	30976	1055.001908098	2
2	31037	1058.506520589	2
2	31237	1065.165129181	3
2	31306	1068.125346492	3
2	31382	1071.674718781	0
2	31967	1083.251144793	2
2	32188	1086.053712409	3
2	32539	1089.323617376	2
2	32569	1090.352043185	2
2	32586	1090.832578589	2
2	33033	1112.282012532	3
2	33135	1118.309611792	3
2	33258	1122.4055967	2
2	33405	1128.120779697	3
2	33472	1129.437632408	3
2	33588	1136.790234629	3
2	33695	1141.230663999	3
2	33814	1144.103971784	3
2	33938	1149.04410819	2
2	33977	1150.688296203	2
2	34398	1170.030831229	3
2	34471	1174.601582508	2
2	34747	1185.997100131	3
2	34766	1186.805829015	3
2	34887	1191.860129729	2
2	34962	1195.994307646	2
2	35493	1203.248674311	3
2	35543	1203.350965841	3
2	35711	1206.623474926	0
2	36077	1209.95528483	3
2	36515	1230.975789404	2
2	36710	1241.952901867	2
2	36844	1245.817695035	3
2	36952	1249.36712669	3
2	37035	1254.686566009	2
2	37066	1255.757655046	2
2	37223	1262.685313649	2
2	37365	1268.041101613	3
2	37413	1268.736056763	3
2	37457	1270.736119387	0
2	37885	1290.663243901	3
2	37995	1298.045534748	2
2	38410	1316.6452366	3
2	38426	1316.791627044	3
2	38890	1322.722173234	3
2	39108	1324.218360746	2
2	39120	1324.704954826	3
2	39528	1329.428807832	2
2	39561	1331.72186285	2
2	39686	1338.530204833	3
2	39973	1349.02190937	3
2	40415	1369.827005082	3
2	40496	1373.998075378	3
2	40547	1376.741507614	3
2	40575	1377.927823241	2
2	40648	1380.286298638	3
2	40733	1382.983101726	3
2	40797	1384.086813354	2
2	41051	1397.973146638	3
2	41143	1401.173067522	3
2	41289	1405.206275059	3
2	41891	1434.98262669	3
2	41917	1436.309786448	2
2	41959	1437.051550884	3
2	41967	1437.149904811	3
2	42169	1440.413000027	3
2	42262	1441.216742246	2
2	42647	1443.998438709	3
2	43357	1464.166772091	3
2	43402	1465.570884849	3
2	43536	1471.124110258	3
2	43979	1492.718017944	2
2	44058	1497.057340496	3
2	44085	1497.475834309	3
2	44131	1499.675587588	3
2	44183	1500.874986039	2
2	44332	1505.124949853	3
2	44343	1505.309717033	0
2	44703	1523.168947618	3
2	44796	1526.692414755	3
2	44950	1533.419999328	2
2	45258	1547.242782209	3
2	45391	1553.362869966	2
2	45425	1554.595701238	3
2	45483	1557.367255132	3
2	45519	1559.637257092	0
2	45941	1562.790365339	3
2	46543	1569.834854431	0
2	46926	1588.214111666	3
2	47003	1590.085853326	3
2	47077	1594.551741034	3
2	47211	1601.138303129	3
2	47330	1604.892455415	2
2	47378	1606.202845869	3
2	47563	1616.370520747	0
2	47805	1625.269918912	3
2	47888	1628.637668397	3
2	47984	1633.391544229	2
2	48270	1646.464340081	3
2	48419	1652.550095668	3
2	48459	1654.287566928	2
2	48482	1654.935992705	3
2	48517	1656.890158789	2
2	48596	1660.735894433	0
2	49218	1681.378210194	0
2	50019	1690.611890559	2
2	50030	1690.84124053	3
2	50055	1691.736476528	3
2	50357	1705.419623468	2
2	50434	1708.612229782	2
2	50540	1713.534605825	3
2	50578	1715.540862053	2
2	50629	1718.134706769	3
2	50818	1724.574667655	3
2	51125	1740.265596299	3
2	51276	1744.993992413	3
2	51365	1748.600600565	2
2	51463	1753.624028953	0
2	51788	1768.266152082	3
2	51865	1770.303632644	3
2	51885	1771.878938207	0
2	51977	1777.233001751	2
2	51993	1777.466638456	2
2	52257	1788.045057267	3
2	52441	1798.010995761	3
2	53308	1807.621830969	2
2	53528	1812.993047891	0
2	53595	1815.933600671	3
2	53772	1823.284322863	2
2	54007	1833.807341312	3
2	54041	1835.030331263	3
2	54092	1837.513316279	3
2	54179	1841.590803092	2
2	54491	1854.374813887	3
2	54626	1861.23988111	3
2	54867	1869.177795628	3
2	54899	1870.324867248	3
2	55035	1879.057256014	2
2	55230	1885.535788173	3
2	55345	1889.882470588	3
2	55358	1890.03281089	0
2	55452	1896.465053654	2
2	55547	1900.427640135	3
2	55829	1911.230253522	3
2	56611	1926.188718634	0
2	56988	1930.824956713	2
2	56999	1931.09816141	2
2	57284	1944.138741631	3
2	57358	1947.518972974	0
2	57452	1951.477839879	2
2	57458	1951.584109592	2
2	57547	1956.932296585	2
2	57701	1962.561501362	3
2	57925	1972.668337143	0
2	58189	1984.442981473	3
2	58281	1988.413490694	2
2	58357	1990.667016109	3
2	58648	2004.808770054	3
2	58781	2009.927987162	0
2	58815	2011.468870056	3
2	58903	2016.083949797	3
2	58954	2018.420239939	3
2	59130	2024.549690485	2
2	59355	2036.137074982	2
2	60303	2048.574157175	3
2	60483	2052.424065604	3
2	60553	2057.017068372	2
2	60685	2062.183746986	3
2	60936	2072.317506534	3
2	61006	2075.761849518	3
2	61063	2078.52251145	3
2	61114	2080.224552034	2
2	61242	2084.047793269	2
2	61622	2102.418801628	3
2	61679	2103.778362377	2
2	61849	2110.870029253	2
2	61855	2110.889491418	2
2	61944	2116.901072906	2
2	62359	2135.985049485	2
2	62484	2141.989280668	2
2	62532	2142.983959581	3
2	62589	2143.787874214	2
2	62637	2145.552925831	2
2	63489	2164.278711785	2
2	63560	2165.998497119	3
2	63991	2174.585124554	3
2	64067	2178.567579779	3
2	64091	2179.106091807	2
2	64443	2194.158058676	2
2	64503	2197.49393218	3
2	64547	2199.083164253	3
2	64662	2202.493159604	3
2	64872	2210.662894329	3
2	64910	2212.446893105	2
2	65197	2225.668615769	2
2	65329	2231.026527492	3
2	65450	2238.436901166	3
2	65511	2240.632048859	3
2	65788	2251.641941124	2
2	65855	2254.491347287	3
2	65988	2261.193268153	3
2	66259	2271.91264474	3
2	66300	2273.914469121	0
2	66358	2277.129152903	3
2	66817	2282.704198436	3
2	67443	2290.057880386	3
2	67534	2296.144689882	2
2	67772	2305.146288769	2
2	67778	2305.160407362	2
2	67924	2311.848503582	3
2	67956	2312.769776328	3
2	68199	2323.428398636	3
2	68315	2328.284696294	3
2	68749	2348.564152397	2
2	68809	2350.629292102	2
2	68832	2350.83375453	3
2	68956	2358.761983552	2
2	69028	2361.189267885	3
2	69114	2363.208997569	3
2	69202	2366.934763289	2
2	69309	2370.457647873	2
2	69418	2377.137897174	3
2	69820	2395.009988226	3
2	70046	2400.495010278	2
2	70098	2400.95507225	0
2	70912	2409.477932545	2
2	70993	2413.843123418	3
2	71135	2421.195276021	3
2	71201	2423.09614745	2
2	71300	2425.960101625	3
2	71443	2432.319347922	3
2	71611	2441.570137011	3
2	71717	2443.860061389	2
2	71770	2446.660144813	2
2	72121	2463.123716195	3
2	72307	2470.350623026	0
2	72374	2473.982305594	3
2	72474	2480.014687093	2
2	72523	2480.963295633	3
2	72586	2482.353794443	3
2	72765	2488.795735381	3
2	72883	2495.149332971	2
2	72895	2495.59357962	2
2	73261	2510.947684318	3
2	73309	2513.207548998	3
2	74378	2529.07750525	3
2	74470	2532.440006854	2
2	74530	2535.632115975	3
2	74740	2544.301130564	0
2	74786	2546.604511923	2
2	74820	2547.253166897	2
2	74898	2549.495901117	2
2	74938	2551.300946893	3
2	75339	2569.237505948	2
2	75351	2569.571924504	2
2	75702	2587.10135829	2
2	75840	2593.653028986	0
2	75974	2601.026243735	2
2	76031	2602.345344849	2
2	76125	2605.287871801	0
2	76174	2607.338569089	2
2	76214	2608.670188284	0
2	76368	2617.832411893	3
2	76733	2632.37822842	3
2	76744	2632.988571165	3
2	77264	2642.95643776	3
2	77963	2655.316788614	3
2	78141	2663.147070466	3
2	78183	2663.505820637	2
2	78207	2664.091185286	2
2	78221	2664.79442908	2
2	78371	2670.724910365	2
2	78473	2676.953864373	3
2	78595	2681.977521004	3
2	78877	2693.557150995	3
2	79108	2703.618247177	2
2	79274	2710.191510655	3
2	79408	2718.872955995	2
2	79430	2719.492537283	3
2	79594	2724.065486285	3
2	79641	2725.466277683	3
2	79754	2729.785123308	3
2	79857	2736.126161758	2
2	79974	2741.815418305	2
2	80202	2749.056355289	3
2	81355	2769.281374347	3
2	81398	2771.592882112	2
2	81446	2773.902387609	0
2	81499	2776.874965097	3
2	81693	2783.546983402	3
2	81751	2785.765043448	2
2	81805	2787.900819258	3
2	81892	2790.957670102	2
2	81967	2795.455126644	2
2	82312	2809.769581546	3
2	82755	2831.343492684	2
2	82816	2834.787533998	2
2	82855	2835.887561451	3
2	82879	2836.402468409	3
2	82891	2836.586470605	3
2	83050	2843.033960702	2
2	83145	2845.592129623	3
2	83320	2853.742013539	3
2	83357	2855.660242547	2
2	83517	2862.896301211	2
2	84444	2884.040808417	2
2	84501	2885.341908541	0
2	85072	2901.260988077	3
2	85075	2901.271176324	3
2	85221	2905.421480052	3
2	85280	2907.961452112	3
2	85367	2911.255573925	2
2	85437	2915.002039438	2
2	85516	2919.792048099	3
2	85641	2923.1634281	3
2	85950	2939.438683369	0
2	86056	2942.487064333	2
2	86357	2957.789439933	2
2	86403	2959.28453698	3
2	86485	2962.095454293	2
2	86581	2964.838556397	3
2	86757	2972.561453381	2
2	86851	2977.712074927	3
2	86865	2978.035702214	3
2	87242	2993.863697179	3
2	87548	3001.064615156	3
2	88104	3007.306820579	2
2	88508	3019.166164003	3
2	88703	3025.756059179	2
2	88720	3026.375366161	3
2	88842	3030.726609686	3
2	88935	3035.909714465	3
2	89002	3039.719806832	3
2	89290	3049.555374475	3
2	89347	3053.009205051	2
2	89438	3058.145848608	3
2	89653	3065.772060696	2
2	89667	3066.113318443	2
2	90061	3084.591835694	3
2	90120	3086.874485743	3
2	90250	3092.265404415	2
2	90315	3095.182772348	3
2	90361	3097.795786502	3
2	90418	3100.11238574	0
2	90615	3107.189817995	3
2	90767	3114.035044109	3
2	91657	3127.49446497	2
2	91877	3129.950569071	3
2	92184	3143.656245401	3
2	92187	3143.666336674	3
2	92384	3153.107293644	3
2	92425	3154.438019119	3
2	92515	3159.902425272	3
2	92674	3164.032099597	3
2	92731	3166.697600779	3
2	92928	3176.333659228	3
2	92988	3179.00251946	3
2	93319	3192.916867841	2
2	93419	3198.409313617	3
2	93658	3207.824100525	0
2	93682	3208.519433378	0
2	93730	3209.360866504	2
2	94048	3224.284120719	3
2	94054	3224.376241844	3
2	94278	3235.154004057	3
2	94324	3237.495390796	3
2	94723	3242.180194965	0
2	94980	3244.252785441	3
2	95416	3251.44091047	3
2	95498	3256.355413553	2
2	95870	3272.211466022	3
2	95911	3273.567861335	3
2	96011	3279.366784511	3
2	96198	3285.412524286	2
2	96251	3287.744527385	2
2	96503	3300.871245974	3
2	96618	3303.569007373	3
2	96654	3304.349846491	2
2	96660	3304.453799016	3
2	96959	3320.157514877	2
2	97171	3328.209799183	2
2	97295	3333.691426216	3
2	97662	3349.591199653	3
2	97695	3350.335381108	3
2	97783	3355.567909349	3
2	97809	3356.747709957	2
2	98111	3361.530864317	3
2	98544	3366.439803753	3
2	98941	3372.642646199	2
2	99226	3385.546767473	2
2	99369	3392.00640058	3
2	99420	3393.871642742	3
2	99698	3406.430661829	3
2	99846	3412.545429979	3
2	99922	3416.958261064	3
2	99980	3419.855671462	3
2	100146	3424.540139046	3
2	100198	3426.287567055	3
2	100346	3432.788335959	3
2	100556	3442.586524406	3
2	100744	3449.345869407	2
2	100827	3454.642771764	2
2	101063	3464.527594502	3
2	101267	3474.668565263	2
2	101306	3476.706767043	3
2	101527	3480.51063484	3
2	101762	3482.261929818	3
2	102002	3483.912477264	3
2	102457	3492.743261955	0
2	102756	3505.999068415	2
2	102762	3506.364722021	2
2	102925	3513.883418006	2
2	103059	3520.915533989	3
2	103100	3521.942650866	3
2	103340	3530.567258605	3
2	103398	3533.361596325	3
2	103451	3535.758761301	3
2	103724	3547.512975758	0
2	103993	3561.81369722	3
2	104130	3565.54742429	3
2	104327	3575.608696309	3
2	104346	3576.394230299	2
2	104379	3577.900730968	2
2	104513	3582.74327599	2
2	104687	3588.808204317	3
2	104842	3598.17434568	3
2	105016	3600.32800275	0
2	105283	3602.558222635	2
2	105987	3615.950341343	2
2	106333	3631.380858389	0
2	106366	3632.702233178	2
2	106421	3636.013039748	0
2	106460	3637.790657914	3
2	106565	3641.921830117	3
2	106672	3644.254411789	3
2	106722	3645.763019511	3
2	107045	3662.200212171	3
2	107071	3662.874954229	0
2	107323	3674.335606401	0
2	107553	3684.37137576	2
2	107693	3689.480477921	3
2	107753	3692.524456102	3
2	107820	3696.47346065	3
2	108070	3706.639340191	3
2	108116	3707.978400862	2
2	108212	3712.019162212	2
2	108334	3719.432538502	2
2	109400	3733.414523349	2
2	109546	3740.997525181	3
2	109664	3744.453004921	2
2	109727	3747.143717714	2
2	109830	3750.859885074	2
2	110039	3762.05568194	3
2	110129	3764.123212695	2
2	110360	3775.952949689	3
2	110463	3781.068612466	2
2	110587	3784.28413807	3
2	110813	3795.730256567	3
2	110902	3800.086437724	2
2	111167	3809.982903324	2
2	111240	3813.362849526	2
2	111250	3813.634765852	3
2	111532	3826.220021988	3
2	111590	3828.440088592	2
2	111679	3832.153042583	2
2	111795	3838.943955999	3
2	112295	3843.312199952	2
2	112917	3855.256074206	3
2	112936	3856.437352535	2
2	113185	3866.481428422	3
2	113417	3878.113593395	3
2	113433	3878.404352583	3
2	113531	3882.13598881	2
2	113819	3894.235464608	3
2	113852	3896.646324782	2
2	113959	3900.897386815	3
2	114154	3907.856518109	3
2	114312	3915.728044229	3
2	114355	3918.097942188	2
2	114666	3929.206119905	3
2	114754	3934.513474661	3
2	114786	3935.413308624	3
2	115110	3948.952228464	3
2	115238	3955.747522121	3
2	115265	3956.805001416	3
2	115727	3962.631889017	3
2	115993	3965.380335454	3
2	116382	3970.987077229	3
2	116695	3986.346968138	2
2	116795	3989.602367011	2
2	116828	3991.058012944	2
2	116883	3994.416036803	0
2	117182	4007.951610005	2
2	117355	4015.729754788	3
2	117361	4015.795502164	3
2	117646	4027.804372017	3
2	117777	4034.0088057	2
2	117864	4039.262205602	2
2	118058	4046.363071672	2
2	118098	4047.585424799	0
2	118179	4050.525835936	2
2	118225	4052.994312793	3
2	118415	4062.217868681	3
2	118645	4071.832180458	0
2	118705	4074.768315536	3
2	118939	4080.430358014	2
2	119415	4084.927037519	3
2	119927	4097.39884714	2
2	120124	4104.23047451	3
2	120161	4105.259335693	2
2	120182	4106.18345524	2
2	120309	4111.582511601	3
2	120378	4114.886646443	3
2	120722	4129.804701238	0
2	120810	4134.512986049	3
2	120968	4142.124174734	3
2	121251	4153.527257918	3
2	121260	4153.656481017	2
2	121289	4155.394666293	0
2	121390	4160.511110396	3
2	121428	4161.287779541	3
2	121493	4162.441627657	3
2	121966	4183.677076121	3
2	122115	4189.226690034	3
2	122195	4194.066343417	2
2	122499	4201.102092802	3
2	122955	4206.551680502	2
2	123356	4212.369873388	3
2	123391	4213.805855981	2
2	123622	4223.600163272	3
2	123680	4226.236734019	2
2	123699	4226.790672244	2
2	123920	4238.508496893	2
2	124090	4244.068190943	2
2	124345	4258.439172736	0
2	124406	4260.390344135	3
2	124622	4268.308914595	3
2	124735	4273.467797248	2
2	124782	4276.517864338	2
2	124854	4280.050057291	0
2	125080	4288.221030803	3
2	125157	4290.530753491	3
2	125275	4298.490549698	0
2	125572	4309.266459594	2
2	126104	4322.327143654	2
2	126126	4322.489576889	0
2	126611	4328.21780543	3
2	126850	4335.471184113	3
2	126892	4338.094682789	2
2	127111	4345.314454072	3
2	127255	4351.110334934	3
2	127264	4351.154595602	2
2	127276	4351.509554412	3
2	127547	4363.540749368	3
2	127823	4378.584524312	2
2	128067	4387.465379775	3
2	128141	4389.118691135	3
2	128223	4394.512692443	2
2	128255	4395.222161078	3
2	128301	4397.751340205	3
2	128330	4399.029543878	0
2	128496	4404.670943461	2
2	128657	4411.525094608	3
2	129008	4427.440116795	3
2	129215	4438.818028419	3
2	129554	4441.936946315	2
2	130144	4448.728694839	0
2	130273	4450.115149229	3
2	130338	4453.650656285	3
2	130370	4454.92581138	3
2	130498	4461.224885713	3
2	130617	4464.098306768	3
2	130799	4472.347093889	3
2	131191	4490.693476419	0
2	131305	4497.9814503	3
2	131411	4501.85280888	3
2	131467	4503.196969758	0
2	131626	4508.854596849	3
2	131677	4510.763054451	2
2	131767	4515.888702139	3
2	131779	4516.399813592	2
2	132058	4528.071537212	2
2	132170	4533.430616148	0
2	132608	4553.870309138	3
2	132866	4560.707123516	3
2	132951	4561.251514217	3
2	133091	4562.045919795	3
2	133680	4568.892912065	3
2	133817	4572.442279009	3
2	133884	4576.672441115	3
2	133923	4577.837534165	3
2	134175	4587.389283713	2
2	134229	4588.765650226	3
2	134531	4603.41977704	2
2	134830	4619.086867658	3
2	134877	4620.625300196	3
2	135005	4624.031670414	2
2	135213	4633.906743601	3
2	135330	4640.112137138	3
2	135390	4642.041429357	3
2	135486	4644.314581656	2
2	135504	4644.83707337	3
2	135719	4655.690418498	0
2	136061	4669.141386752	3
2	136203	4678.480191624	3
2	136233	4679.876250067	2
2	137172	4688.940914131	3
2	137257	4689.32108874	2
2	137309	4692.450862351	0
2	137342	4693.816321593	2
2	137396	4697.224987709	2
2	137585	4703.84547227	2
2	137960	4722.443310327	2
2	138187	4732.126583148	3
2	138282	4737.403918333	3
2	138499	4745.377137359	2
2	138524	4746.042924694	3
2	138576	4747.53332122	3
2	138657	4750.2222266	2
2	138719	4754.163557816	0
2	138736	4754.98483254	2
2	138770	4756.463606932	3
2	139371	4783.577138583	0
2	139653	4798.879185226	2
2	139687	4799.243131015	3
2	139693	4799.482317907	3
2	139887	4800.795639521	3
2	140344	4805.003547882	0
2	140370	4805.0972798	3
2	140405	4806.460049796	2
2	140796	4812.707648702	0
2	140891	4818.729623331	0
2	141528	4847.306202527	2
2	141689	4855.097517107	2
2	141701	4855.372097461	2
2	141769	4859.21126631	2
2	141881	4862.461322869	3
2	141897	4863.155603152	0
2	141972	4864.930712975	2
2	141988	4865.016046504	3
2	142016	4865.604675605	3
2	142213	4875.582682441	3
2	142982	4910.120002917	3
2	143046	4913.323374853	2
2	143052	4913.393254395	3
2	143100	4915.250371426	3
2	143168	4919.408470797	2
2	143314	4920.237089716	3
2	143569	4922.228412652	3
2	143620	4922.826731851	2
2	143891	4926.525823504	3
2	144082	4927.678249155	3
2	145037	4967.486245069	3
2	145139	4972.012596996	3
2	145184	4973.917060941	2
2	145318	4980.86600893	3
2	145473	4985.079762362	2
2	145484	4985.389065877	3
2	145571	4988.781698465	2
2	145603	4989.628642375	2
2	145665	4993.024734204	3