version 2
run General-0-20121123-18:37:36-22056
attr configname General
attr datetime 20121123-18:37:36
attr experiment General
attr inifile dxps.ini
attr iterationvars $n=4
attr iterationvars2 "$n=4, $repetition=0"
attr measurement $n=4
attr n 4
attr network oversim.underlay.simpleunderlay.SimpleUnderlayNetwork
attr processid 22056
attr repetition 0
attr replication #0
attr resultdir results
attr runnumber 0
attr seedset 0

vector 1  SimpleUnderlayNetwork.globalObserver.globalStatistics  "GlobalNodeList: Number of nodes"  ETV
1	17838	1050	16
1	19194	1100	16
1	20350	1150	16
1	21009	1200	16
1	22544	1250	16
1	23415	1300	16
1	24979	1350	16
1	25612	1400	16
1	27109	1450	16
1	27821	1500	16
1	28760	1550	16
1	30140	1600	16
1	31058	1650	16
1	32386	1700	16
1	33320	1750	16
1	34308	1800	16
1	35829	1850	16
1	36691	1900	16
1	38282	1950	16
1	38968	2000	16
1	40373	2050	16
1	41240	2100	16
1	42221	2150	16
1	43642	2200	16
1	44621	2250	16
1	46019	2300	16
1	47070	2350	16
1	47983	2400	16
1	49506	2450	16
1	50372	2500	16
1	51846	2550	16
1	52521	2600	16
1	54137	2650	16
1	54951	2700	16
1	56002	2750	16
1	57336	2800	16
1	58194	2850	16
1	59413	2900	16
1	60425	2950	16
1	61126	3000	16
1	62608	3050	16
1	63351	3100	16
1	64872	3150	16
1	65593	3200	16
1	67448	3250	16
1	68419	3300	16
1	69581	3350	16
1	71081	3400	16
1	71928	3450	16
1	73466	3500	16
1	74589	3550	16
1	75331	3600	16
1	76922	3650	16
1	77747	3700	16
1	79210	3750	16
1	79845	3800	16
1	81349	3850	16
1	82180	3900	16
1	83040	3950	16
1	84283	4000	16
1	85188	4050	16
1	86391	4100	16
1	87405	4150	16
1	88184	4200	16
1	89701	4250	16
1	90497	4300	16
1	92213	4350	16
1	92842	4400	16
1	94336	4450	16
1	95209	4500	16
1	96132	4550	16
1	97451	4600	16
1	98609	4650	16
1	100000	4700	16
1	100824	4750	16
1	101615	4800	16
1	103323	4850	16
1	104162	4900	16
1	105683	4950	16
1	106291	5000	16
1	107733	5050	16
1	108363	5100	16
1	109229	5150	16
1	110658	5200	16
1	111733	5250	16
1	113278	5300	16
1	114167	5350	16
1	115088	5400	16
1	116645	5450	16
1	117470	5500	16
1	119073	5550	16
1	119785	5600	16
1	121284	5650	16
1	122086	5700	16
1	123212	5750	16
1	124545	5800	16
1	125634	5850	16
1	126889	5900	16
1	127910	5950	16
1	128660	6000	16
1	130338	6050	16
1	131508	6100	16
1	133241	6150	16
1	133939	6200	16
1	135397	6250	16
1	136168	6300	16
1	137148	6350	16
1	138520	6400	16
1	139454	6450	16
1	140942	6500	16
1	142143	6550	16
1	142787	6600	16
1	144321	6650	16
1	144954	6700	16
1	146665	6750	16
1	147404	6800	16
1	149285	6850	16
1	150168	6900	16
1	151034	6950	16
1	152574	7000	16
1	153509	7050	16
1	154890	7100	16
1	156027	7150	16
1	156849	7200	16
1	158285	7250	16
1	158966	7300	16
1	160562	7350	16
1	161312	7400	16
1	162740	7450	16
1	163387	7500	16
1	164304	7550	16
1	165721	7600	16
1	166783	7650	16
1	168201	7700	16
1	169184	7750	16
1	169957	7800	16
1	171434	7850	16
1	172348	7900	16
1	173892	7950	16
1	174625	8000	16
1	176082	8050	16
1	176925	8100	16
1	177865	8150	16
1	179454	8200	16
