version 2
run General-4-20121120-17:09:49-8922
attr configname General
attr datetime 20121120-17:09:49
attr experiment General
attr inifile dxps.ini
attr iterationvars $n=12
attr iterationvars2 "$n=12, $repetition=0"
attr measurement $n=12
attr n 12
attr network oversim.underlay.simpleunderlay.SimpleUnderlayNetwork
attr processid 8922
attr repetition 0
attr replication #0
attr resultdir results
attr runnumber 4
attr seedset 4

vector 1  SimpleUnderlayNetwork.globalObserver.globalStatistics  "GlobalNodeList: Number of nodes"  ETV
1	206761	1050	64
1	225031	1100	64
1	229321	1150	64
1	233277	1200	64
1	252034	1250	64
1	268029	1300	64
1	286939	1350	64
1	296957	1400	64
1	313666	1450	64
1	320143	1500	64
1	324537	1550	64
1	343074	1600	64
1	347525	1650	64
1	365905	1700	64
1	370409	1750	64
1	374437	1800	64
1	393148	1850	64
1	397752	1900	64
1	417001	1950	64
1	420881	2000	64
1	437632	2050	64
1	444034	2100	64
1	448503	2150	64
1	467121	2200	64
1	472024	2250	64
1	490085	2300	64
1	494252	2350	64
1	498685	2400	64
1	517680	2450	64
1	521645	2500	64
1	540915	2550	64
1	544943	2600	64
1	561188	2650	64
1	567882	2700	64
1	572840	2750	64
1	591412	2800	64
1	595930	2850	64
1	614562	2900	64
1	619623	2950	64
1	624041	3000	64
1	642710	3050	64
1	646959	3100	64
1	665674	3150	64
1	669513	3200	64
1	685415	3250	64
1	691893	3300	64
1	696614	3350	64
1	714855	3400	64
1	719790	3450	64
1	737949	3500	64
1	742414	3550	64
1	746455	3600	64
1	765519	3650	64
1	769676	3700	64
1	788806	3750	64
1	792962	3800	64
1	809525	3850	64
1	816580	3900	64
1	821214	3950	64
1	839258	4000	64
1	843919	4050	64
1	862292	4100	64
1	866996	4150	64
1	871429	4200	64
1	890306	4250	64
1	894199	4300	64
1	913178	4350	64
1	917289	4400	64
1	933744	4450	64
1	940818	4500	64
1	945741	4550	64
1	964087	4600	64
1	968935	4650	64
1	987133	4700	64
1	991921	4750	64
1	995808	4800	64
1	1014629	4850	64
1	1019144	4900	64
1	1037917	4950	64
1	1041972	5000	64
1	1058496	5050	64
1	1065112	5100	64
1	1070037	5150	64
1	1088418	5200	64
1	1092963	5250	64
1	1111499	5300	64
1	1116069	5350	64
1	1120385	5400	64
1	1138734	5450	64
1	1142740	5500	64
1	1162037	5550	64
1	1166035	5600	64
1	1182044	5650	64
1	1188735	5700	64
1	1193397	5750	64
1	1212183	5800	64
1	1217100	5850	64
1	1235491	5900	64
1	1239998	5950	64
1	1244061	6000	64
1	1263206	6050	64
1	1267507	6100	64
1	1286199	6150	64
1	1290058	6200	64
1	1306324	6250	64
1	1313439	6300	64
1	1317949	6350	64
1	1336334	6400	64
1	1341282	6450	64
1	1359969	6500	64
1	1364670	6550	64
1	1369161	6600	64
1	1388135	6650	64
1	1392265	6700	64
1	1411203	6750	64
1	1415551	6800	64
1	1432290	6850	64
1	1438962	6900	64
1	1443456	6950	64
1	1461755	7000	64
1	1466603	7050	64
1	1485362	7100	64
1	1490206	7150	64
1	1494678	7200	64
1	1513522	7250	64
1	1517625	7300	64
1	1536513	7350	64
1	1540822	7400	64
1	1557269	7450	64
1	1563594	7500	64
1	1567954	7550	64
1	1586565	7600	64
1	1591733	7650	64
1	1610159	7700	64
1	1614902	7750	64
1	1619279	7800	64
1	1638000	7850	64
1	1642226	7900	64
1	1661185	7950	64
1	1665398	8000	64
1	1681811	8050	64
1	1688242	8100	64
1	1693379	8150	64
1	1711899	8200	64
