version 2
run General-0-20121109-14:48:35-11477
attr configname General
attr datetime 20121109-14:48:35
attr experiment General
attr inifile dxps.ini
attr iterationvars $n=4
attr iterationvars2 "$n=4, $repetition=0"
attr measurement $n=4
attr n 4
attr network oversim.underlay.simpleunderlay.SimpleUnderlayNetwork
attr processid 11477
attr repetition 0
attr replication #0
attr resultdir results
attr runnumber 0
attr seedset 0

vector 1  SimpleUnderlayNetwork.globalObserver.globalStatistics  "GlobalNodeList: Number of nodes"  ETV
1	18689	1050	16
1	21694	1100	16
1	23828	1150	16
1	27765	1200	16
1	32228	1250	16
1	35964	1300	16
1	41119	1350	16
1	45414	1400	16
1	51775	1450	16
1	56142	1500	16
1	62229	1550	16
1	67788	1600	16
1	71163	1650	16
1	74316	1700	16
1	78759	1750	16
1	82548	1800	16
1	86271	1850	16
1	90656	1900	16
1	93393	1950	16
1	96974	2000	16
1	101007	2050	16
1	105422	2100	16
1	109445	2150	16
1	113810	2200	16
1	117533	2250	16
1	122342	2300	16
1	127787	2350	16
1	132686	2400	16
1	138059	2450	16
1	143152	2500	16
1	149327	2550	16
1	153544	2600	16
1	158477	2650	16
1	161836	2700	16
1	166007	2750	16
1	169712	2800	16
1	174281	2850	16
1	178688	2900	16
1	184955	2950	16
1	188570	3000	16
1	192659	3050	16
1	197716	3100	16
1	202349	3150	16
1	207022	3200	16
1	211127	3250	16
1	213136	3300	16
1	217042	3350	16
1	220952	3400	16
1	224291	3450	16
1	229910	3500	16
1	235163	3550	16
1	239682	3600	16
1	244479	3650	16
1	248480	3700	16
1	252591	3750	16
1	255956	3800	16
1	260883	3850	16
1	266676	3900	16
1	269877	3950	16
1	274224	4000	16
1	277731	4050	16
1	282612	4100	16
1	286833	4150	16
1	290382	4200	16
1	295011	4250	16
1	298622	4300	16
1	303885	4350	16
1	307574	4400	16
1	313033	4450	16
1	316632	4500	16
1	319693	4550	16
1	324496	4600	16
1	329989	4650	16
1	334330	4700	16
1	340399	4750	16
1	344386	4800	16
1	349897	4850	16
1	352272	4900	16
1	355915	4950	16
1	360438	5000	16
1	364801	5050	16
1	369168	5100	16
1	372603	5150	16
1	376134	5200	16
1	379419	5250	16
1	385122	5300	16
1	388437	5350	16
1	392262	5400	16
1	396639	5450	16
1	399854	5500	16
1	403659	5550	16
1	408404	5600	16
1	412893	5650	16
1	415292	5700	16
1	418113	5750	16
1	421764	5800	16
1	426011	5850	16
1	430934	5900	16
1	434135	5950	16
1	437390	6000	16
1	441449	6050	16
1	446452	6100	16
1	450155	6150	16
1	453976	6200	16
1	458603	6250	16
1	461812	6300	16
1	465307	6350	16
1	469384	6400	16
1	473725	6450	16
1	479830	6500	16
1	484309	6550	16
1	488980	6600	16
1	492415	6650	16
1	495426	6700	16
1	498787	6750	16
1	502674	6800	16
1	505933	6850	16
1	510474	6900	16
1	513081	6950	16
1	517794	7000	16
1	521313	7050	16
1	526716	7100	16
1	531463	7150	16
1	535629	7200	16
1	538500	7250	16
1	542075	7300	16
1	546630	7350	16
1	550175	7400	16
1	554370	7450	16
1	558731	7500	16
1	562592	7550	16
1	566927	7600	16
1	570428	7650	16
1	575057	7700	16
1	578552	7750	16
1	582611	7800	16
1	588824	7850	16
1	593287	7900	16
1	597146	7950	16
1	599773	8000	16
1	603332	8050	16
1	607705	8100	16
1	612652	8150	16
1	615938	8200	16
