version 2
run General-2-20121206-16:15:12-28272
attr b 600s
attr configname General
attr datetime 20121206-16:15:12
attr experiment General
attr inifile dxps.ini
attr iterationvars "$n=8, $b=600s"
attr iterationvars2 "$n=8, $b=600s, $repetition=0"
attr measurement "$n=8, $b=600s"
attr n 8
attr network oversim.underlay.simpleunderlay.SimpleUnderlayNetwork
attr processid 28272
attr repetition 0
attr replication #0
attr resultdir results
attr runnumber 2
attr seedset 2

vector 1  SimpleUnderlayNetwork.globalObserver.globalStatistics  "LifetimeChurn: Time between deletes"  ETV
vector 2  SimpleUnderlayNetwork.globalObserver.globalStatistics  "LifetimeChurn: Session Time"  ETV
vector 3  SimpleUnderlayNetwork.globalObserver.globalStatistics  "LifetimeChurn: Time between creates"  ETV
vector 4  SimpleUnderlayNetwork.globalObserver.globalStatistics  "GlobalNodeList: Number of nodes"  ETV
1	531227	1023.144160552	60.598212035
1	560062	1047.685165574	24.541005022
1	560121	1048.675996364	0.99083079
1	578349	1066.331453105	17.655456741
1	676967	1134.591717542	68.260264437
1	693080	1148.499727524	13.908009982
1	693087	1148.550314753	0.050587229
1	694626	1152.131120683	3.58080593
1	703189	1159.453616253	7.32249557
1	731327	1181.430192446	21.976576193
1	736959	1184.14397336	2.713780914
1	786519	1222.732406974	38.588433614
1	837082	1261.529808497	38.797401523
1	849409	1266.352425351	4.822616854
1	865540	1283.661460263	17.309034912
1	870826	1289.08073782	5.419277557
1	927205	1325.380012597	36.299274777
1	978692	1366.906296064	41.526283467
1	1027789	1420.561741657	53.655445593
1	1042126	1432.960510122	12.398768465
1	1050336	1440.171215252	7.21070513
1	1088379	1460.383406148	20.212190896
1	1121831	1487.178349455	26.794943307
1	1307235	1654.785547059	167.607197604
1	1310860	1660.699856014	5.914308955
1	1319628	1670.989547917	10.289691903
1	1347943	1690.522063513	19.532515596
1	1370377	1708.970449302	18.448385789
1	1437856	1771.933967927	62.963518625
1	1446708	1783.83902776	11.905059833
1	1507683	1824.66503074	40.82600298
1	1578969	1918.543397739	93.878366999
1	1604751	1932.044904336	13.501506597
1	1675085	2040.179863165	108.134958829
1	1692480	2044.4487354	4.268872235
1	1722687	2079.081486888	34.632751488
1	1742074	2105.152362403	26.070875515
1	1793213	2170.071169546	64.918807143
1	1795065	2172.028100327	1.956930781
1	1811870	2194.370099312	22.341998985
1	1839145	2229.526795429	35.156696117
1	1842853	2239.556054304	10.029258875
1	1943310	2365.024125193	125.468070889
1	1949460	2381.979456975	16.955331782
1	1951822	2383.294996578	1.315539603
1	1983796	2418.555512974	35.260516396
1	2006513	2455.170509673	36.614996699
1	2007946	2459.441798073	4.2712884
1	2011506	2463.077260518	3.635462445
1	2023756	2482.904193166	19.826932648
1	2030431	2499.927293092	17.023099926
1	2052059	2523.617103333	23.689810241
1	2067708	2549.555096433	25.9379931
1	2078143	2574.64826824	25.093171807
1	2123564	2660.622589443	85.974321203
1	2141791	2695.238823315	34.616233872
1	2236892	2876.429331666	181.190508351
1	2267989	2907.76532425	31.335992584
1	2273624	2920.900329616	13.135005366
1	2281089	2932.52570472	11.625375104
1	2299063	2978.32786462	45.8021599
1	2343355	3049.81186536	71.48400074
1	2408779	3168.313804564	118.501939204
1	2421213	3199.759224931	31.445420367
1	2480390	3288.909630148	89.150405217
1	2497679	3324.901361399	35.991731251
1	2498261	3330.155739881	5.254378482
1	2510573	3355.636746277	25.481006396
1	2526213	3366.814301313	11.177555036
1	2596180	3500.246274342	133.431973029
1	2610923	3525.864876451	25.618602109
1	2611316	3530.029570962	4.164694511
1	2625279	3562.180897705	32.151326743
1	2626253	3563.047816311	0.866918606
1	2627738	3565.071502078	2.023685767
1	2627998	3566.558096721	1.486594643
1	2687625	3677.516719999	110.958623278
1	2692550	3689.465159732	11.948439733
1	2724479	3733.823670831	44.358511099
1	2735800	3754.419252644	20.595581813
1	2743118	3775.273642637	20.854389993
1	2803203	3884.347668677	109.07402604
1	2814965	3913.982338694	29.634670017
1	2828378	3945.76003248	31.777693786
1	2870959	4020.335315143	74.575282663
1	2878089	4035.646435731	15.311120588
1	2890424	4070.504164152	34.857728421
1	2941540	4163.221705559	92.717541407
1	2950514	4186.957216403	23.735510844
1	2982048	4235.539032625	48.581816222
1	3034709	4335.640516402	100.101483777
1	3054924	4377.987364724	42.346848322
1	3062942	4396.048553161	18.061188437
1	3069246	4405.760720184	9.712167023
1	3082170	4441.263112791	35.502392607
1	3118745	4503.375863497	62.112750706
1	3127153	4524.785243652	21.409380155
1	3127422	4525.47349579	0.688252138
1	3131675	4540.691784775	15.218288985
1	3138259	4556.240188243	15.548403468
1	3162758	4588.506309308	32.266121065
1	3189224	4656.307869367	67.801560059
1	3296652	4871.273399829	214.965530462
1	3301063	4880.989698179	9.71629835
1	3306705	4891.902134339	10.91243616
1	3337025	4942.242265158	50.340130819
1	3340848	4946.500595694	4.258330536
1	3344063	4954.333019641	7.832423947
1	3367879	5009.31286188	54.979842239
1	3369997	5013.092112383	3.779250503
1	3370978	5016.365509054	3.273396671
1	3386375	5042.724343434	26.35883438
1	3392653	5050.155769795	7.431426361
1	3397274	5056.66045955	6.504689755
1	3419274	5106.38797553	49.72751598
1	3432720	5142.514367599	36.126392069
1	3465585	5200.959903612	58.445536013
1	3470459	5206.997011506	6.037107894
1	3523736	5315.150492263	108.153480757
1	3545963	5368.28730185	53.136809587
1	3546165	5370.02809446	1.74079261
1	3591949	5456.674719024	86.646624564
1	3608285	5497.947965795	41.273246771
1	3614646	5508.033084522	10.085118727
1	3634421	5539.211757193	31.178672671
1	3645497	5562.851568882	23.639811689
1	3702596	5674.681704032	111.83013515
1	3721241	5716.278013511	41.596309479
1	3757141	5779.475430141	63.19741663
1	3776499	5815.128379651	35.65294951
1	3799452	5869.700031721	54.57165207
1	3803001	5879.441665538	9.741633817
1	3813524	5885.343215441	5.901549903
1	3819413	5897.748148717	12.404933276
1	3834134	5929.907330174	32.159181457
1	3843428	5949.541912241	19.634582067
1	3881194	6017.300611398	67.758699157
1	3935177	6126.402752657	109.102141259
1	3938483	6133.156960697	6.75420804
1	3957382	6175.331215823	42.174255126
1	4018959	6290.142053248	114.810837425
1	4065753	6378.09855601	87.956502762
1	4071490	6388.560892421	10.462336411
1	4080014	6407.830603318	19.269710897
1	4080392	6410.058765784	2.228162466
1	4101357	6457.355136853	47.296371069
1	4131694	6506.578395742	49.223258889
1	4144048	6538.06127965	31.482883908
1	4152234	6557.316680253	19.255400603
1	4159604	6572.892899793	15.57621954
1	4165624	6586.03163066	13.138730867
1	4170391	6600.2655822	14.23395154
1	4192136	6626.858941285	26.593359085
1	4196691	6639.555116696	12.696175411
1	4203245	6652.737490719	13.182374023
1	4204845	6657.524170267	4.786679548
1	4230080	6715.98861588	58.464445613
1	4260382	6770.37592523	54.38730935
1	4303802	6856.994039486	86.618114256
1	4341755	6943.411580186	86.4175407
1	4357766	6966.865011058	23.453430872
1	4363311	6979.643748917	12.778737859
1	4369363	6990.255340601	10.611591684
1	4371694	6994.445084367	4.189743766
1	4390032	7041.520000536	47.074916169
1	4392947	7044.920793432	3.400792896
1	4402009	7065.01454597	20.093752538
1	4440898	7141.101550903	76.087004933
1	4504721	7269.572680246	128.471129343
1	4566798	7384.882980788	115.310300542
1	4612296	7466.511760596	81.628779808
1	4628265	7500.632108753	34.120348157
1	4697445	7629.014820406	128.382711653
1	4747315	7722.169460396	93.15463999
1	4760215	7746.273937189	24.104476793
1	4773354	7773.90976592	27.635828731
1	4829286	7881.341698606	107.431932686
1	4839891	7902.080453107	20.738754501
1	4842154	7904.479438765	2.398985658
1	4846411	7913.248881821	8.769443056
1	4847718	7916.048570907	2.799689086
1	4871199	7954.339785285	38.291214378
1	4889999	7992.277403557	37.937618272
1	4923880	8053.717678024	61.440274467
1	4952424	8109.940314813	56.222636789
1	4970148	8143.952069906	34.011755093
1	4983836	8165.504212459	21.552142553
1	4989142	8173.549807571	8.045595112
2	549071	1039.164327906	1054.917158982
2	659411	1121.518772373	43257.129130834
2	755550	1202.241895884	25565.657484226
2	796314	1229.235055198	5443.289115069
2	822592	1248.050335314	16872.171248158
2	870836	1289.29146491	1185.150333163
2	1125592	1493.112861237	12025.960267008
2	1179020	1545.677941097	5738.894739149
2	1266401	1610.87859711	1770.935704203
2	1274466	1617.438222719	7601.506349811
2	1289965	1633.474046388	9844.195893303
2	1367236	1704.379657555	11793.816872108
2	1438162	1772.121096815	6156.127785006
2	1447832	1785.90714974	4617.653742681
2	1531107	1856.528154171	6558.93314117
2	1539763	1871.606014135	15425.844752613
2	1624698	1957.625909675	752.61291364
2	1651472	2000.754946325	4471.600190528
2	1670998	2031.758363246	30851.034937209
2	1677805	2041.361169611	8838.162304231
2	1694619	2051.225694128	12610.668953183
2	1814700	2196.309494286	15269.309427353
2	1823355	2211.365643568	2307.010219929
2	1842483	2237.384902175	16612.956424733
2	1908181	2310.507930188	9266.967810972
2	1908924	2312.004283239	6344.493383441
2	1935750	2354.688668443	6837.161214493
2	1936477	2359.190040914	45307.711205118
2	1975849	2409.7948225	3420.333557151
2	1994658	2434.953654007	10576.982489195
2	2015871	2471.63370269	11819.955072578
2	2027349	2491.100085055	14588.27104101
2	2085967	2594.078079499	44443.484541132
2	2091220	2608.236327161	2416.076534719
2	2199688	2793.758138229	12679.734297888
2	2223362	2841.814533178	13729.099848399
2	2228929	2853.123695087	11664.843756224
2	2259737	2896.500917056	1559.762195735
2	2299722	2981.201816588	5900.53183236
2	2346783	3059.709259791	689.11441104
2	2354758	3075.145960365	2656.132053146
2	2427024	3211.686427298	31824.008589138
2	2434147	3224.437575792	18650.602367258
2	2480147	3286.311275692	30264.008146044
2	2525975	3365.734738684	7546.421797241
2	2537884	3391.649590131	22364.807860579
2	2546779	3411.84590131	6321.511851513
2	2549559	3418.83609189	5711.465989067
2	2560544	3443.19549534	97.669381111
2	2565675	3458.96547282	15601.130229
2	2574701	3474.999542417	1080.692242358
2	2575564	3480.331243699	18883.883439487
2	2601955	3509.676677901	5683.187694844
2	2630971	3577.361732963	2612.96948286
2	2665522	3632.092222531	18070.781619304
2	2676285	3654.199403211	32117.14337779
2	2678095	3660.649232791	6553.18247058
2	2679314	3662.072787848	19858.453190571
2	2726322	3740.611953102	2564.530100146
2	2737196	3761.4949749	30152.748744725
2	2748884	3783.889058487	4789.495684232
2	2762553	3819.313736224	10384.033724888
2	2769131	3834.167924736	9247.388562577
2	2783857	3847.70029665	45881.220241094
2	2799010	3878.279551718	514.707813006
2	2810259	3902.759619449	2751.795497247
2	2814644	3913.496773586	7459.85356692
2	2816151	3918.67312845	18927.117144037
2	2828227	3945.531027836	17907.274599612
2	2889843	4065.669380498	6152.089559074
2	2921941	4116.104025896	1848.437886345
2	2924645	4123.222810901	4375.663015532
2	2945854	4176.063927331	364.409568459
2	2947148	4181.52538661	38267.529279588
2	2966625	4206.961322031	17296.214291031
2	2966857	4210.250341835	11768.117904237
2	2973095	4221.32636168	1250.348357344
2	2980564	4233.454533801	7067.834102915
2	3006637	4295.041584635	19734.804830206
2	3018264	4321.526748262	12578.328622507
2	3081048	4440.700595906	7931.794720442
2	3092533	4447.659313543	16056.003517141
2	3098793	4460.131778519	12078.87072183
2	3130827	4535.55107192	9734.962443125
2	3170335	4606.928048394	2008.337533806
2	3194048	4668.939141397	2411.075404573
2	3237524	4750.750624359	3745.303285588
2	3244503	4765.383366949	12432.363220429
2	3254721	4794.491988388	8083.401098038
2	3292631	4861.774934826	7706.911208287
2	3300250	4879.488033132	23095.891132827
2	3308268	4894.712368595	10878.557349496
2	3308330	4894.837870849	133.254241534
2	3308644	4896.541797261	4512.347190922
2	3339564	4943.741552813	34220.116488445
2	3368135	5010.212186315	4892.107246196
2	3371161	5017.116342763	44867.160798937
2	3389700	5043.8358999	750.639530241
2	3390797	5044.431999623	3245.571730963
2	3407713	5081.860012318	5298.848300241
2	3435273	5147.456857845	4658.849528767
2	3480896	5233.361252272	6816.867833041
2	3553400	5386.467214826	28545.906362275
2	3555313	5393.946574426	11912.872959094
2	3569580	5410.124730078	2233.890090328
2	3588767	5445.271761087	26470.477784696
2	3600899	5480.463516855	11564.27055158
2	3602539	5482.497505299	24302.662023366
2	3636810	5542.802170869	20645.713735437
2	3668168	5616.534519716	2314.514051191
2	3668615	5618.617623179	3943.632400425
2	3687876	5645.068451296	20920.152077086
2	3699358	5665.751307711	3151.957520522
2	3719697	5712.834466797	1292.420873804
2	3750783	5766.487717543	15178.848910319
2	3769261	5799.347648348	6010.600601981
2	3774274	5808.109276874	9923.657587244
2	3859907	5984.609249861	15823.457466773
2	3860817	5986.626871668	161.530089029
2	3875914	6008.356356877	1507.275751876
2	3895913	6049.440710277	11530.686387762
2	3915585	6094.88661593	2914.347240569
2	3935903	6130.39158334	7753.579383072
2	3942854	6142.819422595	839.045588463
2	3948746	6155.003574544	3424.983964535
2	3959094	6181.393935587	1943.546379226
2	3965828	6194.238741405	8287.974699976
2	3966970	6196.675262766	2943.901639986
2	3990874	6242.563669681	5357.043554999
2	4007950	6265.699475756	6601.459304789
2	4011747	6275.159514554	5318.03674528
2	4019085	6290.503382209	15378.327588679
2	4034511	6323.228736611	6411.86898851
2	4036685	6326.347242347	2253.249625676
2	4046274	6351.523661237	2394.746681026
2	4048060	6355.056550696	11825.273286564
2	4065997	6379.527307154	3886.488051249
2	4082440	6415.433651081	12216.309462706
2	4111958	6481.304452269	1438.174986496
2	4143234	6535.358272889	13186.133791534
2	4192883	6630.145523733	16416.26508773
2	4225585	6704.715639239	4736.674899678
2	4233026	6721.627004651	7688.490026619
2	4234705	6722.31478826	2284.356882938
2	4262954	6777.643011832	9509.63528578
2	4279172	6820.474376194	1360.029836265
2	4283468	6826.394419104	4012.540987391
2	4305746	6862.172044808	1971.370526724
2	4312347	6875.678297463	14588.14554834
2	4371695	6994.459009653	35260.912624287
2	4373166	6999.68578598	10057.745590699
2	4380230	7014.362374909	7286.308682506
2	4417641	7091.19393604	1399.102904331
2	4427552	7108.559705849	2167.257637556
2	4436312	7126.563370931	9007.628407372
2	4439091	7134.663972265	35746.23645406
2	4479123	7212.458168603	8896.855824961
2	4486575	7226.302734156	2457.820306337
2	4489797	7234.257538343	11913.649622986
2	4490515	7235.720532071	2073.766843593
2	4523255	7306.418811146	2745.896969021
2	4523709	7308.165125984	6052.185647556
2	4577603	7408.498364261	6810.37245446
2	4616789	7475.912337796	6082.637505655
2	4627854	7498.857498099	4639.978572114
2	4636964	7519.30818057	8742.455723314
2	4666245	7569.79145573	6828.826069847
2	4677983	7588.995067055	24137.612728388
2	4708966	7654.213189997	3100.993294896
2	4729800	7689.370452433	7095.486373236
2	4748834	7723.925245145	2955.425710787
2	4755531	7738.170415865	5724.514819013
2	4779091	7786.54792774	12222.614067061
2	4792066	7804.824025172	9896.011678199
2	4793393	7807.884834306	19392.789934882
2	4798871	7817.018647644	15571.448999542
2	4810195	7840.836067438	1126.901270005
2	4813765	7845.95309637	7886.442290712
2	4828953	7880.686758569	750.741740067
2	4838357	7897.617942792	15081.764894488
2	4859762	7932.42790056	15416.88514549
2	4863620	7940.95209061	5806.458234687
2	4870087	7952.625390747	22620.429717561
2	4952021	8108.546217787	12263.692992673
2	4956238	8117.438335406	11897.128429841
2	4976156	8159.951951378	8057.105774203
3	549071	1039.164327906	123.610184581
3	659411	1121.518772373	82.354444467
3	755550	1202.241895884	80.723123511
3	796314	1229.235055198	26.993159314
3	822592	1248.050335314	18.815280116
3	870836	1289.29146491	41.241129596
3	1125592	1493.112861237	203.821396327
3	1179020	1545.677941097	52.56507986
3	1266401	1610.87859711	65.200656013
3	1274466	1617.438222719	6.559625609
3	1289965	1633.474046388	16.035823669
3	1367236	1704.379657555	70.905611167
3	1438162	1772.121096815	67.74143926
3	1447832	1785.90714974	13.786052925
3	1531107	1856.528154171	70.621004431
3	1539763	1871.606014135	15.077859964
3	1624698	1957.625909675	86.01989554
3	1651472	2000.754946325	43.12903665
3	1670998	2031.758363246	31.003416921
3	1677805	2041.361169611	9.602806365
3	1694619	2051.225694128	9.864524517
3	1814700	2196.309494286	145.083800158
3	1823355	2211.365643568	15.056149282
3	1842483	2237.384902175	26.019258607
3	1908181	2310.507930188	73.123028013
3	1908924	2312.004283239	1.496353051
3	1935750	2354.688668443	42.684385204
3	1936477	2359.190040914	4.501372471
3	1975849	2409.7948225	50.604781586
3	1994658	2434.953654007	25.158831507
3	2015871	2471.63370269	36.680048683
3	2027349	2491.100085055	19.466382365
3	2085967	2594.078079499	102.977994444
3	2091220	2608.236327161	14.158247662
3	2199688	2793.758138229	185.521811068
3	2223362	2841.814533178	48.056394949
3	2228929	2853.123695087	11.309161909
3	2259737	2896.500917056	43.377221969
3	2299722	2981.201816588	84.700899532
3	2346783	3059.709259791	78.507443203
3	2354758	3075.145960365	15.436700574
3	2427024	3211.686427298	136.540466933
3	2434147	3224.437575792	12.751148494
3	2480147	3286.311275692	61.8736999
3	2525975	3365.734738684	79.423462992
3	2537884	3391.649590131	25.914851447
3	2546779	3411.84590131	20.196311179
3	2549559	3418.83609189	6.99019058
3	2560544	3443.19549534	24.35940345
3	2565675	3458.96547282	15.76997748
3	2574701	3474.999542417	16.034069597
3	2575564	3480.331243699	5.331701282
3	2601955	3509.676677901	29.345434202
3	2630971	3577.361732963	67.685055062
3	2665522	3632.092222531	54.730489568
3	2676285	3654.199403211	22.10718068
3	2678095	3660.649232791	6.44982958
3	2679314	3662.072787848	1.423555057
3	2726322	3740.611953102	78.539165254
3	2737196	3761.4949749	20.883021798
3	2748884	3783.889058487	22.394083587
3	2762553	3819.313736224	35.424677737
3	2769131	3834.167924736	14.854188512
3	2783857	3847.70029665	13.532371914
3	2799010	3878.279551718	30.579255068
3	2810259	3902.759619449	24.480067731
3	2814644	3913.496773586	10.737154137
3	2816151	3918.67312845	5.176354864
3	2828227	3945.531027836	26.857899386
3	2889843	4065.669380498	120.138352662
3	2921941	4116.104025896	50.434645398
3	2924645	4123.222810901	7.118785005
3	2945854	4176.063927331	52.84111643
3	2947148	4181.52538661	5.461459279
3	2966625	4206.961322031	25.435935421
3	2966857	4210.250341835	3.289019804
3	2973095	4221.32636168	11.076019845
3	2980564	4233.454533801	12.128172121
3	3006637	4295.041584635	61.587050834
3	3018264	4321.526748262	26.485163627
3	3081048	4440.700595906	119.173847644
3	3092533	4447.659313543	6.958717637
3	3098793	4460.131778519	12.472464976
3	3130827	4535.55107192	75.419293401
3	3170335	4606.928048394	71.376976474
3	3194048	4668.939141397	62.011093003
3	3237524	4750.750624359	81.811482962
3	3244503	4765.383366949	14.63274259
3	3254721	4794.491988388	29.108621439
3	3292631	4861.774934826	67.282946438
3	3300250	4879.488033132	17.713098306
3	3308268	4894.712368595	15.224335463
3	3308330	4894.837870849	0.125502254
3	3308644	4896.541797261	1.703926412
3	3339564	4943.741552813	47.199755552
3	3368135	5010.212186315	66.470633502
3	3371161	5017.116342763	6.904156448
3	3389700	5043.8358999	26.719557137
3	3390797	5044.431999623	0.596099723
3	3407713	5081.860012318	37.428012695
3	3435273	5147.456857845	65.596845527
3	3480896	5233.361252272	85.904394427
3	3553400	5386.467214826	153.105962554
3	3555313	5393.946574426	7.4793596
3	3569580	5410.124730078	16.178155652
3	3588767	5445.271761087	35.147031009
3	3600899	5480.463516855	35.191755768
3	3602539	5482.497505299	2.033988444
3	3636810	5542.802170869	60.30466557
3	3668168	5616.534519716	73.732348847
3	3668615	5618.617623179	2.083103463
3	3687876	5645.068451296	26.450828117
3	3699358	5665.751307711	20.682856415
3	3719697	5712.834466797	47.083159086
3	3750783	5766.487717543	53.653250746
3	3769261	5799.347648348	32.859930805
3	3774274	5808.109276874	8.761628526
3	3859907	5984.609249861	176.499972987
3	3860817	5986.626871668	2.017621807
3	3875914	6008.356356877	21.729485209
3	3895913	6049.440710277	41.0843534
3	3915585	6094.88661593	45.445905653
3	3935903	6130.39158334	35.50496741
3	3942854	6142.819422595	12.427839255
3	3948746	6155.003574544	12.184151949
3	3959094	6181.393935587	26.390361043
3	3965828	6194.238741405	12.844805818
3	3966970	6196.675262766	2.436521361
3	3990874	6242.563669681	45.888406915
3	4007950	6265.699475756	23.135806075
3	4011747	6275.159514554	9.460038798
3	4019085	6290.503382209	15.343867655
3	4034511	6323.228736611	32.725354402
3	4036685	6326.347242347	3.118505736
3	4046274	6351.523661237	25.17641889
3	4048060	6355.056550696	3.532889459
3	4065997	6379.527307154	24.470756458
3	4082440	6415.433651081	35.906343927
3	4111958	6481.304452269	65.870801188
3	4143234	6535.358272889	54.05382062
3	4192883	6630.145523733	94.787250844
3	4225585	6704.715639239	74.570115506
3	4233026	6721.627004651	16.911365412
3	4234705	6722.31478826	0.687783609
3	4262954	6777.643011832	55.328223572
3	4279172	6820.474376194	42.831364362
3	4283468	6826.394419104	5.92004291
3	4305746	6862.172044808	35.777625704
3	4312347	6875.678297463	13.506252655
3	4371695	6994.459009653	118.78071219
3	4373166	6999.68578598	5.226776327
3	4380230	7014.362374909	14.676588929
3	4417641	7091.19393604	76.831561131
3	4427552	7108.559705849	17.365769809
3	4436312	7126.563370931	18.003665082
3	4439091	7134.663972265	8.100601334
3	4479123	7212.458168603	77.794196338
3	4486575	7226.302734156	13.844565553
3	4489797	7234.257538343	7.954804187
3	4490515	7235.720532071	1.462993728
3	4523255	7306.418811146	70.698279075
3	4523709	7308.165125984	1.746314838
3	4577603	7408.498364261	100.333238277
3	4616789	7475.912337796	67.413973535
3	4627854	7498.857498099	22.945160303
3	4636964	7519.30818057	20.450682471
3	4666245	7569.79145573	50.48327516
3	4677983	7588.995067055	19.203611325
3	4708966	7654.213189997	65.218122942
3	4729800	7689.370452433	35.157262436
3	4748834	7723.925245145	34.554792712
3	4755531	7738.170415865	14.24517072
3	4779091	7786.54792774	48.377511875
3	4792066	7804.824025172	18.276097432
3	4793393	7807.884834306	3.060809134
3	4798871	7817.018647644	9.133813338
3	4810195	7840.836067438	23.817419794
3	4813765	7845.95309637	5.117028932
3	4828953	7880.686758569	34.733662199
3	4838357	7897.617942792	16.931184223
3	4859762	7932.42790056	34.809957768
3	4863620	7940.95209061	8.52419005
3	4870087	7952.625390747	11.673300137
3	4952021	8108.546217787	155.92082704
3	4956238	8117.438335406	8.892117619
3	4976156	8159.951951378	42.513615972
4	560152	1050	263
4	634499	1100	260
4	693207	1150	260
4	746617	1200	254
4	823424	1250	256
4	880853	1300	254
4	954947	1350	252
4	1011033	1400	251
4	1073256	1450	249
4	1131427	1500	248
4	1179801	1550	248
4	1255942	1600	248
4	1301304	1650	251
4	1357783	1700	248
4	1416161	1750	247
4	1458916	1800	247
4	1525536	1850	246
4	1562536	1900	248
4	1619775	1950	246
4	1651034	2000	247
4	1693858	2050	250
4	1736530	2100	248
4	1768452	2150	247
4	1816103	2200	246
4	1849034	2250	246
4	1898655	2300	245
4	1932473	2350	247
4	1959566	2400	246
4	2002603	2450	247
4	2030440	2500	245
4	2067772	2550	243
4	2086855	2600	242
4	2118141	2650	243
4	2143165	2700	242
4	2164489	2750	241
4	2201483	2800	242
4	2227572	2850	243
4	2260172	2900	244
4	2287495	2950	241
4	2306937	3000	241
4	2343393	3050	241
4	2363915	3100	242
4	2399953	3150	242
4	2421226	3200	241
4	2455805	3250	242
4	2484241	3300	243
4	2508231	3350	240
4	2541258	3400	240
4	2562504	3450	243
4	2596158	3500	246
4	2620744	3550	244
4	2639942	3600	241
4	2673303	3650	242
4	2696519	3700	244
4	2733240	3750	243
4	2753661	3800	243
4	2783973	3850	246
4	2808104	3900	246
4	2828713	3950	249
4	2863557	4000	248
4	2883013	4050	247
4	2912214	4100	246
4	2935640	4150	248
4	2953807	4200	249
4	2987311	4250	252
4	3007859	4300	252
4	3041967	4350	253
4	3063532	4400	251
4	3092679	4450	251
4	3115821	4500	251
4	3135969	4550	249
4	3166497	4600	247
4	3186559	4650	247
4	3215052	4700	247
4	3237346	4750	247
4	3256027	4800	250
4	3288554	4850	250
4	3309514	4900	253
4	3341468	4950	253
4	3362816	5000	250
4	3392636	5050	251
4	3415000	5100	249
4	3435580	5150	249
4	3465318	5200	248
4	3487873	5250	247
4	3515430	5300	247
4	3538033	5350	246
4	3557428	5400	246
4	3589637	5450	248
4	3608792	5500	249
4	3639990	5550	248
4	3660999	5600	246
4	3689377	5650	249
4	3712528	5700	249
4	3736338	5750	249
4	3769438	5800	250
4	3790628	5850	250
4	3819970	5900	248
4	3843656	5950	245
4	3864495	6000	246
4	3896117	6050	247
4	3917084	6100	248
4	3946267	6150	248
4	3967586	6200	251
4	3997653	6250	252
4	4022167	6300	255
4	4045909	6350	256
4	4075510	6400	258
4	4098318	6450	256
4	4126536	6500	256
4	4149222	6550	256
4	4170339	6600	253
4	4202035	6650	251
4	4222677	6700	248
4	4252033	6750	250
4	4271225	6800	250
4	4298789	6850	252
4	4322056	6900	253
4	4344967	6950	253
4	4373241	7000	252
4	4394765	7050	251
4	4422560	7100	249
4	4445663	7150	252
4	4467017	7200	251
4	4496320	7250	255
4	4517628	7300	254
4	4550404	7350	256
4	4572459	7400	255
4	4601145	7450	256
4	4628106	7500	257
4	4651284	7550	257
4	4684005	7600	259
4	4706415	7650	258
4	4736069	7700	260
4	4761385	7750	261
4	4783558	7800	260
4	4814870	7850	265
4	4838892	7900	266
4	4868569	7950	264
4	4893081	8000	264
4	4920850	8050	263
4	4946754	8100	262
4	4972938	8150	263
4	5002413	8200	261
