version 2
run General-1-20121206-16:07:35-28270
attr b 1200s
attr configname General
attr datetime 20121206-16:07:35
attr experiment General
attr inifile dxps.ini
attr iterationvars "$n=8, $b=1200s"
attr iterationvars2 "$n=8, $b=1200s, $repetition=0"
attr measurement "$n=8, $b=1200s"
attr n 8
attr network oversim.underlay.simpleunderlay.SimpleUnderlayNetwork
attr processid 28270
attr repetition 0
attr replication #0
attr resultdir results
attr runnumber 1
attr seedset 1

vector 1  SimpleUnderlayNetwork.globalObserver.globalStatistics  "LifetimeChurn: Time between deletes"  ETV
vector 2  SimpleUnderlayNetwork.globalObserver.globalStatistics  "LifetimeChurn: Session Time"  ETV
vector 3  SimpleUnderlayNetwork.globalObserver.globalStatistics  "LifetimeChurn: Time between creates"  ETV
vector 4  SimpleUnderlayNetwork.globalObserver.globalStatistics  "GlobalNodeList: Number of nodes"  ETV
1	522830	1005.382785772	6.658766256
1	540911	1027.21493973	21.832153958
1	574299	1063.041561003	35.826621273
1	579915	1064.916462092	1.874901089
1	833438	1274.618269805	209.701807713
1	841881	1283.751089651	9.132819846
1	877068	1320.842832792	37.091743141
1	986234	1405.056340923	84.213508131
1	987577	1408.145065776	3.088724853
1	987965	1410.487039389	2.341973613
1	1020288	1442.047912624	31.560873235
1	1048960	1454.662087654	12.61417503
1	1060794	1466.477303026	11.815215372
1	1125929	1525.112366359	58.635063333
1	1147714	1546.097545254	20.985178895
1	1148171	1548.7891221	2.691576846
1	1184362	1566.182425855	17.393303755
1	1200512	1574.332002009	8.149576154
1	1354701	1704.107397335	129.775395326
1	1383351	1735.80015679	31.692759455
1	1383403	1736.054970114	0.254813324
1	1411821	1767.941534172	31.886564058
1	1609766	1942.313144959	174.371610787
1	1623468	1955.814955806	13.501810847
1	1735449	2077.95390127	122.138945464
1	1743051	2089.897280787	11.943379517
1	1744834	2092.649301293	2.752020506
1	1759372	2111.014307696	18.365006403
1	1769352	2124.491239054	13.476931358
1	1784749	2144.33327757	19.842038516
1	1853335	2221.604987283	77.271709713
1	1871362	2251.569612031	29.964624748
1	1880992	2270.482528436	18.912916405
1	1925256	2326.684149551	56.201621115
1	1951398	2379.45515413	52.771004579
1	2006941	2455.300640314	75.845486184
1	2081794	2565.562648114	110.2620078
1	2089300	2583.110011388	17.547363274
1	2091737	2590.885459784	7.775448396
1	2109087	2623.340690942	32.455231158
1	2142518	2658.015687746	34.674996804
1	2152706	2680.590900824	22.575213078
1	2221080	2797.111655299	116.520754475
1	2226249	2811.073466756	13.961811457
1	2233772	2824.37220063	13.298733874
1	2304891	2945.714781088	121.342580458
1	2350468	3015.651493347	69.936712259
1	2357059	3028.721643376	13.070150029
1	2364965	3043.269593213	14.547949837
1	2368959	3053.500840582	10.231247369
1	2369685	3056.855184446	3.354343864
1	2376433	3067.477485768	10.622301322
1	2390420	3094.645129354	27.167643586
1	2501845	3258.599731363	163.954602009
1	2521143	3297.534245454	38.934514091
1	2539547	3337.031867397	39.497621943
1	2544526	3349.823225005	12.791357608
1	2593850	3414.493099464	64.669874459
1	2593926	3415.139377111	0.646277647
1	2665613	3537.178126208	122.038749097
1	2665900	3539.034346807	1.856220599
1	2685362	3574.91427637	35.879929563
1	2719681	3614.644465509	39.730189139
1	2794407	3731.146455974	116.501990465
1	2806962	3747.942852898	16.796396924
1	2807373	3750.672286734	2.729433836
1	2815889	3763.820551308	13.148264574
1	2845012	3817.564628165	53.744076857
1	2860031	3841.960834281	24.396206116
1	2867045	3843.503932558	1.543098277
1	2878895	3859.813287075	16.309354517
1	2917832	3928.784474066	68.971186991
1	2929723	3948.602791299	19.818317233
1	2937294	3960.55105007	11.948258771
1	2959796	3974.72300172	14.17195165
1	2972306	3996.472063548	21.749061828
1	3005271	4061.414498707	64.942435159
1	3046173	4112.809198879	51.394700172
1	3064280	4148.457993751	35.648794872
1	3078211	4179.762938018	31.304944267
1	3082926	4188.703383035	8.940445017
1	3115227	4229.436651516	40.733268481
1	3145701	4287.688392496	58.25174098
1	3175811	4325.015025933	37.326633437
1	3217060	4394.496588335	69.481562402
1	3249189	4443.550925551	49.054337216
1	3264565	4463.166290019	19.615364468
1	3341119	4596.352084463	133.185794444
1	3368310	4653.724199	57.372114537
1	3394191	4689.059109524	35.334910524
1	3411703	4717.490455509	28.431345985
1	3450303	4800.805104439	83.31464893
1	3474008	4824.52529241	23.720187971
1	3533217	4930.642697221	106.117404811
1	3553265	4958.773284489	28.130587268
1	3576332	5010.351447202	51.578162713
1	3579284	5014.431178326	4.079731124
1	3587243	5029.423337332	14.992159006
1	3597465	5042.079233193	12.655895861
1	3648768	5135.770002956	93.690769763
1	3690794	5201.446458761	65.676455805
1	3709214	5240.814513913	39.368055152
1	3749428	5294.232990423	53.41847651
1	3765833	5324.85926846	30.626278037
1	3782746	5359.328075993	34.468807533
1	3799409	5388.160504169	28.832428176
1	3799722	5389.808347142	1.647842973
1	3844718	5448.232966234	58.424619092
1	3868916	5491.587324548	43.354358314
1	3899915	5529.198268053	37.610943505
1	3917832	5554.685565927	25.487297874
1	3930945	5574.370736997	19.68517107
1	3939394	5586.818106104	12.447369107
1	3954720	5614.04422888	27.226122776
1	4012040	5702.282525836	88.238296956
1	4019999	5716.577255446	14.29472961
1	4020651	5720.691854324	4.114598878
1	4155022	5922.073792603	201.381938279
1	4156789	5924.007152436	1.933359833
1	4160167	5932.302591491	8.295439055
1	4180164	5964.322309957	32.019718466
1	4189104	5981.8349122	17.512602243
1	4199666	5997.761841113	15.926928913
1	4205380	6002.392665925	4.630824812
1	4220172	6017.942665232	15.549999307
1	4242042	6052.17914965	34.236484418
1	4275451	6106.576378136	54.397228486
1	4353686	6228.123574674	121.547196538
1	4378468	6257.560479267	29.436904593
1	4391847	6277.839061553	20.278582286
1	4409413	6307.562515332	29.723453779
1	4416674	6321.802732014	14.240216682
1	4438869	6355.309140324	33.50640831
1	4439528	6358.602668451	3.293528127
1	4485238	6419.892910253	61.290241802
1	4496370	6439.090861819	19.197951566
1	4529799	6485.800854769	46.70999295
1	4626808	6629.568576239	143.76772147
1	4645559	6657.337243282	27.768667043
1	4663843	6689.650040428	32.312797146
1	4673958	6706.342374622	16.692334194
1	4680518	6715.1163429	8.773968278
1	4694467	6724.296347681	9.180004781
1	4717956	6754.739398264	30.443050583
1	4720178	6761.711211777	6.971813513
1	4723165	6764.373161496	2.661949719
1	4729562	6774.815590064	10.442428568
1	4798356	6881.288947891	106.473357827
1	4819416	6915.255380428	33.966432537
1	4840044	6951.703485435	36.448105007
1	4843820	6957.477917502	5.774432067
1	4859487	6972.312355242	14.83443774
1	4864543	6979.145529584	6.833174342
1	4865245	6980.742111428	1.596581844
1	4871391	6987.524188986	6.782077558
1	4922472	7067.77709174	80.252902754
1	4961052	7113.169392781	45.392301041
1	4969024	7127.358786942	14.189394161
1	5001056	7180.701944039	53.343157097
1	5009548	7192.188429071	11.486485032
1	5026764	7206.629506602	14.441077531
1	5078123	7279.331097836	72.701591234
1	5099736	7308.153979574	28.822881738
1	5104679	7314.229617787	6.075638213
1	5143761	7363.266622618	49.037004831
1	5177588	7416.73012785	53.463505232
1	5180264	7422.45593715	5.7258093
1	5265138	7533.788840502	111.332903352
1	5301822	7573.343183155	39.554342653
1	5316985	7595.655713601	22.312530446
1	5324275	7611.429873276	15.774159675
1	5395408	7710.316107938	98.886234662
1	5400862	7717.965369874	7.649261936
1	5401059	7718.662075698	0.696705824
1	5404604	7723.05264556	4.390569862
1	5425684	7759.504218058	36.451572498
1	5485690	7837.937545553	78.433327495
1	5519361	7894.241330581	56.303785028
1	5550813	7931.01655833	36.775227749
1	5590074	7991.923242083	60.906683753
1	5611654	8024.881085074	32.957842991
1	5652581	8078.748757935	53.867672861
1	5657813	8085.706053492	6.957295557
1	5679881	8124.187600194	38.481546702
1	5728219	8190.935010179	66.747409985
2	522831	1005.396960703	2359.426264302
2	542925	1032.338363814	1779.773291485
2	728930	1189.266577396	109.484512255
2	834173	1275.105319834	3393.618879166
2	854869	1296.171869876	1664.542911212
2	934219	1353.080001445	4378.497254001
2	987706	1409.143420662	5673.633671078
2	1074129	1481.689690808	6067.099149694
2	1201972	1574.717588307	584.615689263
2	1347451	1701.157283047	7852.846626489
2	1357095	1707.96895574	22351.247046078
2	1401290	1757.665274666	2074.899353499
2	1427143	1783.981802469	4650.911107784
2	1431057	1791.859374999	16517.206879149
2	1479236	1820.002205277	9217.289259288
2	1546902	1883.182200998	12614.988663244
2	1584840	1923.083223308	14297.666494094
2	1607467	1940.789575121	6388.170108183
2	1616924	1950.664674401	14710.792517414
2	1673788	2016.045991009	28230.177589543
2	1676749	2022.060012575	6294.500580615
2	1687399	2035.398623181	14932.203836404
2	1688699	2040.681600033	16637.344632319
2	1708396	2049.831741151	1824.981545924
2	1812724	2165.056321175	917.421164593
2	1852071	2216.135075516	11541.923625174
2	1859200	2227.691779522	1202.447597589
2	1870840	2250.349021929	3378.695206951
2	1951506	2380.413601983	24872.453947206
2	1995479	2431.562807344	8006.170714807
2	2007297	2456.593433878	7074.08237128
2	2010027	2462.846628886	3484.455962605
2	2012098	2466.595229707	9001.256118893
2	2022810	2490.176982795	1812.511409701
2	2034344	2506.192360759	3038.005907294
2	2037889	2513.479180325	1562.935318382
2	2077339	2556.522165237	2846.638338932
2	2103104	2610.718499387	21046.972962768
2	2115237	2639.070945363	7739.908521521
2	2156651	2684.089825893	3383.089323757
2	2242425	2844.143078942	3478.41943639
2	2242754	2844.721329024	1766.630755439
2	2245654	2853.195826007	7041.351897871
2	2256240	2877.389963018	8526.868015041
2	2286166	2903.87035274	20919.579797489
2	2294952	2923.133286862	14060.541454406
2	2316527	2974.085068497	3765.211279184
2	2357098	3029.790549156	8198.658699241
2	2357662	3031.16906833	27166.260516471
2	2377325	3070.574269331	3896.129216104
2	2417885	3131.193114497	647.627436811
2	2432485	3152.520802929	7289.691694803
2	2452614	3191.535484817	398.378791553
2	2501445	3257.474635315	6613.827274037
2	2511114	3276.269323467	2660.804469136
2	2577281	3386.771196991	2625.990644122
2	2595920	3422.248164729	11772.56590919
2	2599867	3428.827347627	6891.219075421
2	2670749	3547.836773727	13789.837611428
2	2671295	3550.473516551	2742.365545002
2	2676064	3559.975661516	12306.7302132
2	2683164	3572.857746607	5907.702212316
2	2692789	3588.764072841	8525.638403757
2	2697029	3599.307699608	4407.615542475
2	2704078	3602.687478558	1371.085805931
2	2711855	3610.412666995	16024.833709188
2	2726442	3625.364068213	8157.242438023
2	2738903	3649.222381105	314.380410194
2	2775660	3716.527924546	23472.546610447
2	2776080	3717.949220896	225.83525317
2	2779653	3721.71135015	8808.720904508
2	2792972	3727.230830311	3883.42488329
2	2844451	3815.29181643	6261.365893181
2	2845245	3818.996444948	3323.362341994
2	2850926	3827.840554755	25863.30717073
2	2855505	3839.377357163	500.63766877
2	2912936	3920.231566155	29948.334009648
2	2922229	3935.855618376	21612.676372333
2	2938709	3961.37215423	12699.615193797
2	3047385	4114.781706902	9400.402776256
2	3137194	4272.942092608	4701.614326996
2	3145465	4286.71835574	20053.424933657
2	3228836	4415.340358519	7816.990924429
2	3276891	4485.153954469	26242.870501329
2	3306429	4550.58753565	16757.520668216
2	3336753	4588.73878407	8233.247060319
2	3341328	4597.183504637	25100.206100331
2	3361681	4640.534932398	7310.810349112
2	3411296	4716.208754791	15620.214177291
2	3471806	4822.795183458	35792.616008634
2	3475547	4830.024205946	633.208760288
2	3512363	4909.976454404	16243.649524896
2	3513549	4911.331577864	2061.146339638
2	3560718	4973.687910879	19739.205800239
2	3567086	4991.353165095	4039.61648717
2	3614808	5057.609870059	1396.48099176
2	3635912	5103.721064819	4719.04012758
2	3680028	5181.094349346	7607.352047873
2	3699545	5219.452093254	3457.337271915
2	3703579	5226.853493443	18874.81954573
2	3713808	5247.357588478	28445.049679048
2	3746337	5292.648630945	2747.232454129
2	3751845	5301.869872428	7799.24498369
2	3754762	5303.880793646	22697.284678529
2	3789046	5365.763354675	40450.369917182
2	3823390	5414.061457436	1365.31170406
2	3837966	5435.953786258	18728.236668708
2	3855029	5466.752168019	11766.477800858
2	3856040	5468.94692087	8991.030814123
2	3857205	5471.545673724	12544.281128477
2	3867996	5488.817933666	3489.587670236
2	3868955	5491.656005246	1298.159584818
2	3908896	5542.646874393	3781.57378975
2	3912770	5546.180384514	790.6223475
2	3938922	5585.447803996	13748.466946046
2	3945323	5599.547445689	6106.05273569
2	3959039	5623.185978924	6159.644293955
2	3994289	5665.182333153	14358.758377517
2	3995387	5668.627399329	5390.947232342
2	4005735	5686.971953785	25385.33549449
2	4009685	5696.263634588	17775.143244188
2	4014606	5704.315073228	17987.981771838
2	4107579	5853.689225544	15554.549174463
2	4144568	5903.6941536	17252.123635325
2	4150696	5912.865023808	13148.871374274
2	4165025	5938.967717081	7565.075928937
2	4165045	5939.036439976	11006.357760074
2	4166731	5942.703609843	761.946430585
2	4170534	5951.517809332	26159.192085799
2	4187756	5979.369152456	4892.607792676
2	4216056	6012.491551277	708.850823345
2	4225695	6024.749870341	18089.87049617
2	4226727	6028.054654748	5944.717487
2	4227127	6029.169355037	615.399221202
2	4264960	6089.937808888	22851.289633135
2	4275881	6108.387986463	6217.505490179
2	4292334	6129.315527179	10474.084503248
2	4312783	6156.004211465	217.598456986
2	4328485	6185.182422447	5766.933621338
2	4398810	6289.539953025	13969.339440775
2	4419873	6325.495808478	8801.570125518
2	4421618	6331.002145176	20435.189621721
2	4424673	6334.637415917	13286.904366739
2	4461242	6382.330930891	1526.91039969
2	4473718	6396.459310634	606.064878352
2	4488602	6424.004249522	3631.501278443
2	4491061	6429.986236772	12560.013011717
2	4524820	6482.847646736	40312.910301034
2	4530213	6486.994218683	15624.280074955
2	4546718	6512.067926649	8538.303546097
2	4564637	6543.03487525	11798.58311497
2	4567954	6547.17577875	2143.854325097
2	4582097	6573.482897799	4104.505702271
2	4606411	6603.133796873	592.568147166
2	4625398	6627.351761299	1105.613608575
2	4668138	6694.93190644	14478.84906467
2	4708111	6740.977793967	1352.770963968
2	4741495	6796.178236913	11854.787387458
2	4753378	6819.310871528	906.00523641
2	4760406	6831.691824686	7240.1719554
2	4763591	6837.460514071	41487.426205531
2	4778053	6848.409483781	3133.949051923
2	4826643	6926.659095467	5317.028348851
2	4856053	6966.810056748	7628.260329619
2	4896691	7024.826121077	182.362307994
2	4898260	7028.488671008	43506.555835258
2	4910809	7049.536722754	4887.357940305
2	5000087	7177.68988962	6418.108574806
2	5007906	7190.527409326	15925.251293381
2	5027451	7207.263542813	13296.864691422
2	5054617	7243.092104384	8176.147394064
2	5106376	7318.568887763	12431.460090492
2	5109545	7321.681854971	452.822363087
2	5136885	7351.982745166	3009.248996872
2	5157027	7385.077714752	1554.181366325
2	5190080	7436.564928891	702.622671303
2	5208959	7453.159955079	6888.34380133
2	5234403	7490.387435242	8642.533027599
2	5346321	7646.357083519	16580.542179258
2	5411080	7734.005070395	4340.518092185
2	5451249	7795.98697468	2409.411684941
2	5461990	7804.372107578	6170.646364071
2	5524504	7900.700529072	49373.710076991
2	5542594	7922.881815196	5783.755364506
2	5555281	7934.256345209	2441.338231544
2	5559967	7943.487497143	4604.311505736
2	5632794	8051.699169264	8573.042899014
2	5691357	8143.007667406	1862.581546629
2	5723882	8182.633113799	6110.232110082
3	522831	1005.396960703	87.359959315
3	542925	1032.338363814	26.941403111
3	728930	1189.266577396	156.928213582
3	834173	1275.105319834	85.838742438
3	854869	1296.171869876	21.066550042
3	934219	1353.080001445	56.908131569
3	987706	1409.143420662	56.063419217
3	1074129	1481.689690808	72.546270146
3	1201972	1574.717588307	93.027897499
3	1347451	1701.157283047	126.43969474
3	1357095	1707.96895574	6.811672693
3	1401290	1757.665274666	49.696318926
3	1427143	1783.981802469	26.316527803
3	1431057	1791.859374999	7.87757253
3	1479236	1820.002205277	28.142830278
3	1546902	1883.182200998	63.179995721
3	1584840	1923.083223308	39.90102231
3	1607467	1940.789575121	17.706351813
3	1616924	1950.664674401	9.87509928
3	1673788	2016.045991009	65.381316608
3	1676749	2022.060012575	6.014021566
3	1687399	2035.398623181	13.338610606
3	1688699	2040.681600033	5.282976852
3	1708396	2049.831741151	9.150141118
3	1812724	2165.056321175	115.224580024
3	1852071	2216.135075516	51.078754341
3	1859200	2227.691779522	11.556704006
3	1870840	2250.349021929	22.657242407
3	1951506	2380.413601983	130.064580054
3	1995479	2431.562807344	51.149205361
3	2007297	2456.593433878	25.030626534
3	2010027	2462.846628886	6.253195008
3	2012098	2466.595229707	3.748600821
3	2022810	2490.176982795	23.581753088
3	2034344	2506.192360759	16.015377964
3	2037889	2513.479180325	7.286819566
3	2077339	2556.522165237	43.042984912
3	2103104	2610.718499387	54.19633415
3	2115237	2639.070945363	28.352445976
3	2156651	2684.089825893	45.01888053
3	2242425	2844.143078942	160.053253049
3	2242754	2844.721329024	0.578250082
3	2245654	2853.195826007	8.474496983
3	2256240	2877.389963018	24.194137011
3	2286166	2903.87035274	26.480389722
3	2294952	2923.133286862	19.262934122
3	2316527	2974.085068497	50.951781635
3	2357098	3029.790549156	55.705480659
3	2357662	3031.16906833	1.378519174
3	2377325	3070.574269331	39.405201001
3	2417885	3131.193114497	60.618845166
3	2432485	3152.520802929	21.327688432
3	2452614	3191.535484817	39.014681888
3	2501445	3257.474635315	65.939150498
3	2511114	3276.269323467	18.794688152
3	2577281	3386.771196991	110.501873524
3	2595920	3422.248164729	35.476967738
3	2599867	3428.827347627	6.579182898
3	2670749	3547.836773727	119.0094261
3	2671295	3550.473516551	2.636742824
3	2676064	3559.975661516	9.502144965
3	2683164	3572.857746607	12.882085091
3	2692789	3588.764072841	15.906326234
3	2697029	3599.307699608	10.543626767
3	2704078	3602.687478558	3.37977895
3	2711855	3610.412666995	7.725188437
3	2726442	3625.364068213	14.951401218
3	2738903	3649.222381105	23.858312892
3	2775660	3716.527924546	67.305543441
3	2776080	3717.949220896	1.42129635
3	2779653	3721.71135015	3.762129254
3	2792972	3727.230830311	5.519480161
3	2844451	3815.29181643	88.060986119
3	2845245	3818.996444948	3.704628518
3	2850926	3827.840554755	8.844109807
3	2855505	3839.377357163	11.536802408
3	2912936	3920.231566155	80.854208992
3	2922229	3935.855618376	15.624052221
3	2938709	3961.37215423	25.516535854
3	3047385	4114.781706902	153.409552672
3	3137194	4272.942092608	158.160385706
3	3145465	4286.71835574	13.776263132
3	3228836	4415.340358519	128.622002779
3	3276891	4485.153954469	69.81359595
3	3306429	4550.58753565	65.433581181
3	3336753	4588.73878407	38.15124842
3	3341328	4597.183504637	8.444720567
3	3361681	4640.534932398	43.351427761
3	3411296	4716.208754791	75.673822393
3	3471806	4822.795183458	106.586428667
3	3475547	4830.024205946	7.229022488
3	3512363	4909.976454404	79.952248458
3	3513549	4911.331577864	1.35512346
3	3560718	4973.687910879	62.356333015
3	3567086	4991.353165095	17.665254216
3	3614808	5057.609870059	66.256704964
3	3635912	5103.721064819	46.11119476
3	3680028	5181.094349346	77.373284527
3	3699545	5219.452093254	38.357743908
3	3703579	5226.853493443	7.401400189
3	3713808	5247.357588478	20.504095035
3	3746337	5292.648630945	45.291042467
3	3751845	5301.869872428	9.221241483
3	3754762	5303.880793646	2.010921218
3	3789046	5365.763354675	61.882561029
3	3823390	5414.061457436	48.298102761
3	3837966	5435.953786258	21.892328822
3	3855029	5466.752168019	30.798381761
3	3856040	5468.94692087	2.194752851
3	3857205	5471.545673724	2.598752854
3	3867996	5488.817933666	17.272259942
3	3868955	5491.656005246	2.83807158
3	3908896	5542.646874393	50.990869147
3	3912770	5546.180384514	3.533510121
3	3938922	5585.447803996	39.267419482
3	3945323	5599.547445689	14.099641693
3	3959039	5623.185978924	23.638533235
3	3994289	5665.182333153	41.996354229
3	3995387	5668.627399329	3.445066176
3	4005735	5686.971953785	18.344554456
3	4009685	5696.263634588	9.291680803
3	4014606	5704.315073228	8.05143864
3	4107579	5853.689225544	149.374152316
3	4144568	5903.6941536	50.004928056
3	4150696	5912.865023808	9.170870208
3	4165025	5938.967717081	26.102693273
3	4165045	5939.036439976	0.068722895
3	4166731	5942.703609843	3.667169867
3	4170534	5951.517809332	8.814199489
3	4187756	5979.369152456	27.851343124
3	4216056	6012.491551277	33.122398821
3	4225695	6024.749870341	12.258319064
3	4226727	6028.054654748	3.304784407
3	4227127	6029.169355037	1.114700289
3	4264960	6089.937808888	60.768453851
3	4275881	6108.387986463	18.450177575
3	4292334	6129.315527179	20.927540716
3	4312783	6156.004211465	26.688684286
3	4328485	6185.182422447	29.178210982
3	4398810	6289.539953025	104.357530578
3	4419873	6325.495808478	35.955855453
3	4421618	6331.002145176	5.506336698
3	4424673	6334.637415917	3.635270741
3	4461242	6382.330930891	47.693514974
3	4473718	6396.459310634	14.128379743
3	4488602	6424.004249522	27.544938888
3	4491061	6429.986236772	5.98198725
3	4524820	6482.847646736	52.861409964
3	4530213	6486.994218683	4.146571947
3	4546718	6512.067926649	25.073707966
3	4564637	6543.03487525	30.966948601
3	4567954	6547.17577875	4.1409035
3	4582097	6573.482897799	26.307119049
3	4606411	6603.133796873	29.650899074
3	4625398	6627.351761299	24.217964426
3	4668138	6694.93190644	67.580145141
3	4708111	6740.977793967	46.045887527
3	4741495	6796.178236913	55.200442946
3	4753378	6819.310871528	23.132634615
3	4760406	6831.691824686	12.380953158
3	4763591	6837.460514071	5.768689385
3	4778053	6848.409483781	10.94896971
3	4826643	6926.659095467	78.249611686
3	4856053	6966.810056748	40.150961281
3	4896691	7024.826121077	58.016064329
3	4898260	7028.488671008	3.662549931
3	4910809	7049.536722754	21.048051746
3	5000087	7177.68988962	128.153166866
3	5007906	7190.527409326	12.837519706
3	5027451	7207.263542813	16.736133487
3	5054617	7243.092104384	35.828561571
3	5106376	7318.568887763	75.476783379
3	5109545	7321.681854971	3.112967208
3	5136885	7351.982745166	30.300890195
3	5157027	7385.077714752	33.094969586
3	5190080	7436.564928891	51.487214139
3	5208959	7453.159955079	16.595026188
3	5234403	7490.387435242	37.227480163
3	5346321	7646.357083519	155.969648277
3	5411080	7734.005070395	87.647986876
3	5451249	7795.98697468	61.981904285
3	5461990	7804.372107578	8.385132898
3	5524504	7900.700529072	96.328421494
3	5542594	7922.881815196	22.181286124
3	5555281	7934.256345209	11.374530013
3	5559967	7943.487497143	9.231151934
3	5632794	8051.699169264	108.211672121
3	5691357	8143.007667406	91.308498142
3	5723882	8182.633113799	39.625446393
4	561594	1050	260
4	630700	1100	258
4	681273	1150	258
4	734469	1200	259
4	805790	1250	259
4	855427	1300	259
4	931081	1350	258
4	972908	1400	259
4	1035865	1450	257
4	1092502	1500	255
4	1148543	1550	254
4	1227573	1600	251
4	1280415	1650	251
4	1346642	1700	251
4	1392135	1750	252
4	1436638	1800	252
4	1510211	1850	253
4	1557770	1900	254
4	1616565	1950	256
4	1656060	2000	255
4	1708495	2050	260
4	1750395	2100	259
4	1786226	2150	255
4	1837232	2200	255
4	1870766	2250	256
4	1910448	2300	255
4	1937316	2350	254
4	1961958	2400	254
4	2003873	2450	255
4	2028847	2500	258
4	2073014	2550	260
4	2098439	2600	259
4	2132096	2650	259
4	2161153	2700	258
4	2183966	2750	258
4	2221519	2800	258
4	2243565	2850	257
4	2280734	2900	259
4	2305462	2950	261
4	2326746	3000	261
4	2366880	3050	261
4	2390954	3100	258
4	2430203	3150	258
4	2457249	3200	260
4	2493430	3250	260
4	2521391	3300	261
4	2544548	3350	260
4	2583784	3400	259
4	2609511	3450	259
4	2647308	3500	259
4	2671234	3550	260
4	2697162	3600	262
4	2739053	3650	265
4	2761765	3700	265
4	2807305	3750	268
4	2833658	3800	265
4	2871144	3850	268
4	2901929	3900	265
4	2929949	3950	266
4	2972884	4000	264
4	2998579	4050	263
4	3038534	4100	262
4	3064517	4150	262
4	3086762	4200	260
4	3125339	4250	258
4	3151018	4300	260
4	3191737	4350	258
4	3219700	4400	258
4	3253033	4450	258
4	3282530	4500	257
4	3306395	4550	257
4	3342537	4600	260
4	3366524	4650	260
4	3401551	4700	259
4	3428421	4750	258
4	3449473	4800	258
4	3485444	4850	258
4	3506265	4900	258
4	3547357	4950	259
4	3570831	5000	260
4	3607306	5050	257
4	3633216	5100	257
4	3655346	5150	258
4	3690210	5200	258
4	3714607	5250	260
4	3750986	5300	260
4	3776897	5350	260
4	3805408	5400	260
4	3844965	5450	260
4	3872633	5500	264
4	3914080	5550	264
4	3945417	5600	264
4	3981074	5650	263
4	4010761	5700	267
4	4037439	5750	265
4	4075683	5800	265
4	4103775	5850	265
4	4140667	5900	266
4	4169932	5950	268
4	4200747	6000	268
4	4240825	6050	269
4	4270344	6100	269
4	4308829	6150	270
4	4336475	6200	272
4	4371407	6250	271
4	4403673	6300	270
4	4433419	6350	271
4	4474684	6400	271
4	4501757	6450	272
4	4539518	6500	273
4	4568696	6550	275
4	4599783	6600	276
4	4640073	6650	277
4	4669776	6700	277
4	4714186	6750	274
4	4743137	6800	271
4	4778419	6850	275
4	4810544	6900	274
4	4838380	6950	274
4	4878824	7000	270
4	4911093	7050	272
4	4951240	7100	271
4	4982593	7150	269
4	5013352	7200	270
4	5057646	7250	270
4	5094040	7300	269
4	5135813	7350	269
4	5165628	7400	270
4	5205299	7450	269
4	5241230	7500	271
4	5277952	7550	270
4	5318116	7600	269
4	5348301	7650	268
4	5386456	7700	268
4	5420103	7750	265
4	5452595	7800	265
4	5492420	7850	266
4	5523928	7900	265
4	5564748	7950	267
4	5593371	8000	267
4	5631703	8050	265
4	5664972	8100	265
4	5695386	8150	264
4	5733765	8200	265
