version 2
run General-1-20121120-16:53:38-8772
attr configname General
attr datetime 20121120-16:53:38
attr experiment General
attr inifile dxps.ini
attr iterationvars $n=6
attr iterationvars2 "$n=6, $repetition=0"
attr measurement $n=6
attr n 6
attr network oversim.underlay.simpleunderlay.SimpleUnderlayNetwork
attr processid 8772
attr repetition 0
attr replication #0
attr resultdir results
attr runnumber 1
attr seedset 1

vector 1  SimpleUnderlayNetwork.globalObserver.globalStatistics  "GlobalNodeList: Number of nodes"  ETV
1	92512	1050	64
1	101044	1100	64
1	106206	1150	64
1	110650	1200	64
1	119099	1250	64
1	123463	1300	64
1	131648	1350	64
1	135706	1400	64
1	142715	1450	64
1	148188	1500	64
1	152950	1550	64
1	160800	1600	64
1	165661	1650	64
1	173845	1700	64
1	178621	1750	64
1	182758	1800	64
1	191126	1850	64
1	195834	1900	64
1	204864	1950	64
1	210074	2000	64
1	217558	2050	64
1	223148	2100	64
1	227986	2150	64
1	236530	2200	64
1	240863	2250	64
1	248757	2300	64
1	253579	2350	64
1	257819	2400	64
1	266113	2450	64
1	270291	2500	64
1	278985	2550	64
1	283030	2600	64
1	289859	2650	64
1	294957	2700	64
1	299297	2750	64
1	307148	2800	64
1	312030	2850	64
1	319781	2900	64
1	324962	2950	64
1	329187	3000	64
1	337547	3050	64
1	342172	3100	64
1	350909	3150	64
1	355269	3200	64
1	362590	3250	64
1	368281	3300	64
1	373045	3350	64
1	381207	3400	64
1	385633	3450	64
1	393790	3500	64
1	398221	3550	64
1	402459	3600	64
1	410429	3650	64
1	414670	3700	64
1	423110	3750	64
1	427529	3800	64
1	434767	3850	64
1	440490	3900	64
1	444725	3950	64
1	452781	4000	64
1	456979	4050	64
1	464893	4100	64
1	470400	4150	64
1	474538	4200	64
1	483198	4250	64
1	487677	4300	64
1	495995	4350	64
1	499941	4400	64
1	506843	4450	64
1	512619	4500	64
1	516933	4550	64
1	525666	4600	64
1	530588	4650	64
1	538393	4700	64
1	543325	4750	64
1	547798	4800	64
1	556069	4850	64
1	560815	4900	64
1	568871	4950	64
1	573396	5000	64
1	580743	5050	64
1	586837	5100	64
1	591701	5150	64
1	599554	5200	64
1	603902	5250	64
1	611643	5300	64
1	617018	5350	64
1	621767	5400	64
1	630254	5450	64
1	634516	5500	64
1	643373	5550	64
1	647620	5600	64
1	654725	5650	64
1	660848	5700	64
1	665420	5750	64
1	674267	5800	64
1	679348	5850	64
1	687697	5900	64
1	692487	5950	64
1	696388	6000	64
1	704848	6050	64
1	709047	6100	64
1	717259	6150	64
1	721426	6200	64
1	728369	6250	64
1	733757	6300	64
1	738762	6350	64
1	746916	6400	64
1	751525	6450	64
1	759451	6500	64
1	764505	6550	64
1	768620	6600	64
1	777096	6650	64
1	781726	6700	64
1	790143	6750	64
1	794821	6800	64
1	801575	6850	64
1	807448	6900	64
1	812163	6950	64
1	820855	7000	64
1	825478	7050	64
1	833518	7100	64
1	838330	7150	64
1	842698	7200	64
1	851157	7250	64
1	855038	7300	64
1	863378	7350	64
1	868194	7400	64
1	875046	7450	64
1	880642	7500	64
1	885055	7550	64
1	893348	7600	64
1	898017	7650	64
1	906242	7700	64
1	910778	7750	64
1	915687	7800	64
1	924373	7850	64
1	928584	7900	64
1	937041	7950	64
1	941797	8000	64
1	949395	8050	64
1	954862	8100	64
1	959407	8150	64
1	967336	8200	64
