version 2
run General-2-20121109-15:03:46-11481
attr configname General
attr datetime 20121109-15:03:46
attr experiment General
attr inifile dxps.ini
attr iterationvars $n=8
attr iterationvars2 "$n=8, $repetition=0"
attr measurement $n=8
attr n 8
attr network oversim.underlay.simpleunderlay.SimpleUnderlayNetwork
attr processid 11481
attr repetition 0
attr replication #0
attr resultdir results
attr runnumber 2
attr seedset 2

vector 1  SimpleUnderlayNetwork.globalObserver.globalStatistics  "GlobalNodeList: Number of nodes"  ETV
1	561623	1050	256
1	941002	1100	256
1	1769812	1150	256
1	3150248	1200	256
1	4545687	1250	256
1	6059369	1300	256
1	7671228	1350	256
1	9345544	1400	256
1	10965374	1450	256
1	12719184	1500	256
1	14357571	1550	256
1	15927565	1600	256
1	17672037	1650	256
1	19252595	1700	256
1	20927506	1750	256
1	22523023	1800	256
1	24217127	1850	256
1	25790907	1900	256
1	27414729	1950	256
1	29033100	2000	256
1	30760985	2050	256
1	32355932	2100	256
1	34001914	2150	256
1	35667772	2200	256
1	37333164	2250	256
1	38991499	2300	256
1	40658776	2350	256
1	42209874	2400	256
1	43857296	2450	256
1	45485619	2500	256
1	47330637	2550	256
1	48934849	2600	256
1	50620283	2650	256
1	52267073	2700	256
1	54053353	2750	256
1	55712674	2800	256
1	57394523	2850	256
1	59112694	2900	256
1	60744746	2950	256
1	62313670	3000	256
1	63839111	3050	256
1	65506800	3100	256
1	67065403	3150	256
1	68772491	3200	256
1	70483857	3250	256
1	72115650	3300	256
1	73899048	3350	256
1	75500938	3400	256
1	77129630	3450	256
1	78761725	3500	256
1	80376894	3550	256
1	82043871	3600	256
1	83646142	3650	256
1	85200247	3700	256
1	86764049	3750	256
1	88378615	3800	256
1	90040609	3850	256
1	91735578	3900	256
1	93408336	3950	256
1	95098607	4000	256
1	96733567	4050	256
1	98391485	4100	256
1	99970787	4150	256
1	101455286	4200	256
1	102971493	4250	256
1	104612047	4300	256
1	106341117	4350	256
1	108102492	4400	256
1	109964112	4450	256
1	111546006	4500	256
1	113029623	4550	256
1	114741244	4600	256
1	116441723	4650	256
1	118063431	4700	256
1	119760691	4750	256
1	121430734	4800	256
1	123233849	4850	256
1	124988905	4900	256
1	126522877	4950	256
1	128163013	5000	256
1	129794402	5050	256
1	131595153	5100	256
1	133181231	5150	256
1	134811801	5200	256
1	136498926	5250	256
1	138201040	5300	256
1	139766836	5350	256
1	141308489	5400	256
1	143032190	5450	256
1	144644585	5500	256
1	146305626	5550	256
1	148103109	5600	256
1	149807265	5650	256
1	151467413	5700	256
1	153056902	5750	256
1	154690466	5800	256
1	156305705	5850	256
1	158079589	5900	256
1	159732519	5950	256
1	161359671	6000	256
1	163044151	6050	256
1	164825868	6100	256
1	166509684	6150	256
1	168190464	6200	256
1	169726990	6250	256
1	171427296	6300	256
1	173050453	6350	256
1	174690329	6400	256
1	176385367	6450	256
1	178119447	6500	256
1	179838850	6550	256
1	181543795	6600	256
1	183178492	6650	256
1	184735238	6700	256
1	186250952	6750	256
1	187928483	6800	256
1	189711346	6850	256
1	191418601	6900	256
1	193011720	6950	256
1	194618291	7000	256
1	196374537	7050	256
1	197874747	7100	256
1	199687261	7150	256
1	201249960	7200	256
1	202713907	7250	256
1	204266699	7300	256
1	205990563	7350	256
1	207597229	7400	256
1	209194527	7450	256
1	210882943	7500	256
1	212609151	7550	256
1	214444440	7600	256
1	215971169	7650	256
1	217563847	7700	256
1	219273560	7750	256
1	220913935	7800	256
1	222619117	7850	256
1	224221540	7900	256
1	225742974	7950	256
1	227408113	8000	256
1	228992651	8050	256
1	230545825	8100	256
1	232265479	8150	256
1	233909242	8200	256
