version 2
run General-3-20121109-18:49:11-13288
attr configname General
attr datetime 20121109-18:49:11
attr experiment General
attr inifile dxps.ini
attr iterationvars $n=10
attr iterationvars2 "$n=10, $repetition=0"
attr measurement $n=10
attr n 10
attr network oversim.underlay.simpleunderlay.SimpleUnderlayNetwork
attr processid 13288
attr repetition 0
attr replication #0
attr resultdir results
attr runnumber 3
attr seedset 3

vector 1  SimpleUnderlayNetwork.globalObserver.globalStatistics  "GlobalNodeList: Number of nodes"  ETV
1	7778325	1050	1024
1	24104848	1100	1024
1	46262326	1150	1024
1	72399378	1200	1024
1	98996416	1250	1024
1	125869495	1300	1024
1	154045064	1350	1024
1	181607869	1400	1024
1	209589199	1450	1024
1	238181330	1500	1024
1	266073820	1550	1024
1	293706323	1600	1024
1	320870319	1650	1024
1	347573444	1700	1024
1	375234935	1750	1024
1	403750184	1800	1024
1	430266787	1850	1024
1	457306972	1900	1024
1	485944119	1950	1024
1	514738825	2000	1024
1	543028097	2050	1024
1	571164994	2100	1024
1	597712975	2150	1024
1	625667659	2200	1024
1	653792626	2250	1024
1	681222024	2300	1024
1	708790501	2350	1024
1	736351123	2400	1024
1	763503645	2450	1024
1	793676345	2500	1024
1	822317933	2550	1024
1	850136672	2600	1024
1	875931673	2650	1024
1	902702397	2700	1024
1	930825409	2750	1024
1	958599648	2800	1024
1	985153392	2850	1024
1	1012547783	2900	1024
1	1040448563	2950	1024
1	1069391433	3000	1024
1	1097129884	3050	1024
1	1123448964	3100	1024
1	1150093617	3150	1024
1	1176787607	3200	1024
1	1204413402	3250	1024
1	1231987639	3300	1024
1	1260573276	3350	1024
1	1287196108	3400	1024
1	1315660803	3450	1024
1	1344217055	3500	1024
1	1371262571	3550	1024
1	1398993684	3600	1024
1	1426704540	3650	1024
1	1455521912	3700	1024
1	1483294665	3750	1024
1	1510485254	3800	1024
1	1537151852	3850	1024
1	1564975086	3900	1024
1	1593281755	3950	1024
1	1621541912	4000	1024
1	1648781523	4050	1024
1	1675908294	4100	1024
1	1703307104	4150	1024
1	1731117160	4200	1024
1	1759841224	4250	1024
1	1786327876	4300	1024
1	1813646534	4350	1024
1	1841083587	4400	1024
1	1870360075	4450	1024
1	1898949849	4500	1024
1	1925980966	4550	1024
1	1955698937	4600	1024
1	1982934585	4650	1024
1	2010561273	4700	1024
1	2037701446	4750	1024
1	2064422157	4800	1024
1	2091413715	4850	1024
1	2118538987	4900	1024
1	2147803367	4950	1024
1	2176465366	5000	1024
1	2204717804	5050	1024
1	2233533069	5100	1024
1	2261232221	5150	1024
1	2287637611	5200	1024
1	2314181198	5250	1024
1	2342603191	5300	1024
1	2370424816	5350	1024
1	2398208702	5400	1024
1	2427031355	5450	1024
1	2454166850	5500	1024
1	2482419685	5550	1024
1	2511111552	5600	1024
1	2538307372	5650	1024
1	2565334759	5700	1024
1	2593312348	5750	1024
1	2622319950	5800	1024
1	2650238954	5850	1024
1	2678225658	5900	1024
1	2706354007	5950	1024
1	2733669387	6000	1024
1	2760358352	6050	1024
1	2787479153	6100	1024
1	2817269795	6150	1024
1	2845091015	6200	1024
1	2871826052	6250	1024
1	2899966045	6300	1024
1	2927451916	6350	1024
1	2955037779	6400	1024
1	2982846921	6450	1024
1	3009851353	6500	1024
1	3037549373	6550	1024
1	3065100622	6600	1024
1	3093832385	6650	1024
1	3122063036	6700	1024
1	3149597570	6750	1024
1	3176446555	6800	1024
1	3204256452	6850	1024
1	3232198640	6900	1024
1	3259013126	6950	1024
1	3286420138	7000	1024
1	3314146587	7050	1024
1	3343401172	7100	1024
1	3370974435	7150	1024
1	3399421467	7200	1024
1	3426332472	7250	1024
1	3453962120	7300	1024
1	3480495358	7350	1024
1	3508955677	7400	1024
1	3537081660	7450	1024
1	3565483668	7500	1024
1	3593874326	7550	1024
1	3621930997	7600	1024
1	3649925489	7650	1024
1	3677834714	7700	1024
1	3705207566	7750	1024
1	3734445876	7800	1024
1	3761617067	7850	1024
1	3788709150	7900	1024
1	3815420259	7950	1024
1	3842681541	8000	1024
1	3871511667	8050	1024
1	3898373969	8100	1024
1	3926551565	8150	1024
1	3954215367	8200	1024
