version 2
run General-0-20121012-21:43:28-4758
attr configname General
attr datetime 20121012-21:43:28
attr experiment General
attr inifile dxps.ini
attr iterationvars ""
attr iterationvars2 $repetition=0
attr measurement ""
attr network oversim.underlay.simpleunderlay.SimpleUnderlayNetwork
attr processid 4758
attr repetition 0
attr replication #0
attr resultdir results
attr runnumber 0
attr seedset 0

vector 1  SimpleUnderlayNetwork.globalObserver.globalStatistics  "KBRTestApp: One-way Hop Count"  ETV
vector 2  SimpleUnderlayNetwork.globalObserver.globalStatistics  "KBRTestApp: One-way Latency"  ETV
vector 3  SimpleUnderlayNetwork.globalObserver.globalStatistics  "GlobalNodeList: Number of nodes"  ETV
1	5381	103.39248571	4
1	5410	105.198297633	2
1	5574	111.004769331	3
1	5680	113.236437397	3
1	5697	113.359999464	3
1	5742	115.297912616	3
1	5754	115.313922249	3
1	5781	115.80758089	3
1	5881	118.889606004	3
1	6910	123.627729889	2
1	6919	123.911723337	2
1	6977	125.913912649	3
1	7030	126.491957482	3
1	7085	128.752645342	3
1	7103	129.653771037	3
1	7319	132.245492072	3
1	8090	156.674751821	3
1	8187	160.322835054	2
1	8442	163.375890621	3
1	8462	164.074381427	3
1	8480	164.951468133	3
1	8640	170.794417613	3
1	8884	179.721090557	4
1	9160	182.775704447	3
1	9303	187.016389225	3
1	9339	187.771672501	2
1	9358	187.943864454	4
1	9389	188.781973203	4
1	9410	189.271165321	4
1	9434	189.901898736	4
1	9590	193.390801405	3
1	9608	193.927223916	3
1	10365	216.661592662	3
1	10625	221.912055409	2
1	10808	227.020719651	3
1	10849	229.563054109	3
1	10979	231.931772396	3
1	10994	232.060682853	2
1	11367	240.550246945	3
1	12015	245.899307078	3
1	12113	249.093758779	3
1	12125	249.823188156	3
1	12179	250.437001227	3
1	12185	250.493335961	3
1	12213	250.877807059	3
1	12396	252.214288463	3
1	12534	258.299821984	2
1	12791	262.172576224	3
1	13114	274.776378113	3
1	13640	287.178124915	4
1	13653	287.880556055	0
1	13728	290.964379411	3
1	13941	298.034399663	3
1	13972	298.609307205	4
1	14251	303.016040996	2
1	14303	304.935341227	4
1	14404	307.123316281	2
1	14439	308.541983498	2
1	14463	309.655795463	4
1	14591	311.813553355	3
1	14637	314.133128704	3
1	14657	315.002079924	3
1	14696	315.490576372	3
1	14809	319.417265611	4
1	15800	345.456317214	3
1	15833	345.899920758	3
1	15901	346.684703935	4
1	15961	350.15964045	3
1	16112	354.269061125	4
1	16242	359.19779983	3
1	16254	359.74230284	2
1	16852	361.754335051	3
1	16956	362.245719184	3
1	17120	363.830461323	3
1	17233	367.500032862	2
1	17242	367.643928467	2
1	17274	369.912176898	3
1	17499	373.11423142	3
1	17634	378.315818361	3
1	17652	379.379552276	3
1	18575	402.404835759	2
1	18627	403.452606589	2
1	18683	405.935676877	2
1	18847	411.362441286	3
1	18948	415.506427708	3
1	18979	415.832457791	4
1	19355	423.160748899	2
1	19518	429.393566199	4
1	19521	429.467775489	3
1	19652	431.822953186	2
1	19655	431.835661469	2
1	19710	433.510250324	4
1	19719	433.73132721	2
1	19745	435.032648401	4
1	19807	435.956996996	3
1	19871	437.765294989	2
1	20440	452.757992313	4
1	20970	467.268265441	2
1	21002	468.87074487	3
1	21014	469.3746398	2
1	21032	469.894035817	3
1	21065	470.259416213	2
1	21194	473.746854281	2
1	21785	481.229328441	3
1	22148	484.326734894	2
1	22313	490.574179436	2
1	22316	490.597387697	3
1	22535	495.357198183	2
1	22609	496.582517564	3
1	22662	499.325725344	3
1	22935	502.573032938	3
1	23099	509.925981028	2
1	23283	515.633494661	3
1	23729	525.935805378	4
1	23776	526.646608836	2
1	23827	528.943766355	3
1	23983	533.283833162	3
1	24031	535.847670239	3
1	24150	540.077587002	3
1	24225	540.429016945	4
1	24352	541.318504145	3
1	24612	548.49726129	4
1	24621	548.753589036	3
1	24647	550.120148984	3
1	24790	552.822950773	4
1	24814	553.755238379	2
1	24898	556.437534321	2
1	25492	572.292846887	4
1	25896	583.051317146	2
1	25942	583.799691329	3
1	26052	587.339126498	2
1	26196	591.942578836	3
1	26226	592.718955915	3
1	26276	594.952688697	4
1	26293	595.160276306	3
1	26418	599.813102254	4
1	26918	601.355065932	2
1	27147	602.699134444	3
1	27340	606.279670738	0
1	27370	606.634619582	4
1	27421	608.34935842	3
1	27645	614.38127231	2
1	27698	615.893963667	3
1	28429	636.852275901	4
1	28467	637.791836616	4
1	28797	643.413997818	4
1	28933	649.684315731	4
1	28988	650.784134494	3
1	28999	650.889687982	2
1	29120	653.67921844	3
1	29196	656.012543846	4
1	29274	658.62008895	3
1	29558	663.022759558	3
1	29606	665.012791745	3
1	29700	666.78196	2
1	29747	668.143505406	4
1	29770	668.373948124	3
1	29892	671.800138905	2
1	30004	676.415770223	2
1	30676	696.299261081	3
1	30736	698.288603194	3
1	30754	698.496238658	3
1	30783	700.086289218	3
1	31011	701.721776102	4
1	31207	707.368226453	3
1	31275	710.755162117	4
1	31395	714.755256945	2
1	31504	717.151383446	3
1	32269	722.914436339	2
1	32388	725.265986015	3
1	32459	726.938923127	0
1	32490	727.92801037	2
1	32501	728.2060417	0
1	32849	738.1689511	4
1	33157	744.282228692	2
1	33420	754.041087298	2
1	33467	755.890360178	2
1	33626	760.378318443	4
1	33892	764.567949433	3
1	33898	764.724252746	3
1	34028	769.055840456	3
1	34067	770.26246812	3
1	34308	777.792658595	4
1	34344	778.561253077	4
1	34658	785.015428047	3
1	34744	786.29029042	3
1	34790	787.433210751	3
1	34946	792.422617497	3
1	34964	792.567596911	3
1	35002	793.749223756	4
1	35393	802.939299503	2
1	35545	809.51263755	2
1	35776	816.461716068	3
1	36064	822.142998948	4
1	36137	823.578107017	0
1	36176	825.276619038	3
1	36411	834.760159384	0
1	36524	836.923122887	0
1	36527	836.97991198	4
1	36552	837.939998261	0
1	36577	838.814262723	3
1	37443	845.872387942	2
1	37482	846.180230165	3
1	37762	854.697713124	3
1	37892	859.121769465	3
1	38176	862.466713739	2
1	38182	862.616283824	4
1	38496	874.290873438	4
1	38626	879.706395327	3
1	38820	881.388399853	2
1	38973	885.509652338	2
1	38990	885.668868846	3
1	39037	886.094250357	2
1	39242	894.075266309	3
1	39289	895.454327353	4
1	39347	896.095931786	3
1	39406	897.66282329	4
1	39677	902.259031285	2
1	39995	914.668202598	3
1	40119	918.345000063	2
1	40323	921.450506773	2
1	40437	924.345284315	2
1	40543	926.712852852	4
1	40723	933.454225433	2
1	40766	935.231368502	4
1	40857	937.550762692	2
1	40969	940.607034294	3
1	41207	944.510983727	4
1	41302	946.510358528	3
1	41355	948.416879343	3
1	41373	949.425848138	3
1	41642	959.027150123	3
1	41685	960.065184921	2
1	42364	962.704729241	2
1	42594	967.322688754	3
1	43098	981.048806972	3
1	43189	981.972586784	3
1	43407	988.366512377	3
1	43410	988.398324728	3
1	43546	991.85979264	4
1	43585	993.062009019	3
1	44024	1003.577869765	2
1	44036	1003.615409531	2
1	44039	1003.623604422	3
1	44155	1007.590431778	3
1	44193	1009.041937761	4
1	44234	1010.432412986	3
1	44361	1013.631643811	2
1	44379	1014.202900688	3
1	44497	1017.781136228	3
1	44533	1019.521896248	4
1	45096	1035.095648201	2
1	45513	1043.484119357	3
1	45599	1046.244526006	3
1	45661	1049.105132378	3
1	45789	1052.047067611	2
1	45911	1056.495810298	4
1	45972	1059.239062355	4
1	46274	1063.248914807	2
1	46316	1065.579891818	2
1	46412	1067.5996985	4
1	46450	1069.698848337	4
1	46592	1072.580740991	3
1	46748	1078.411934845	4
1	46754	1078.72205441	2
1	47590	1084.834385991	4
2	5381	103.39248571	0.605020618
2	5410	105.198297633	0.489878081
2	5574	111.004769331	0.261651082
2	5680	113.236437397	0.438115754
2	5697	113.359999464	0.144495287
2	5742	115.297912616	0.364679331
2	5754	115.313922249	0.022175629
2	5781	115.80758089	0.114220001
2	5881	118.889606004	0.300256333
2	6910	123.627729889	0.115599077
2	6919	123.911723337	0.390977671
2	6977	125.913912649	0.214256254
2	7030	126.491957482	0.453470809
2	7085	128.752645342	0.262447875
2	7103	129.653771037	0.350057335
2	7319	132.245492072	0.589410514
2	8090	156.674751821	0.272893538
2	8187	160.322835054	0.520626501
2	8442	163.375890621	0.175337679
2	8462	164.074381427	0.249293433
2	8480	164.951468133	0.34975236
2	8640	170.794417613	0.259953295
2	8884	179.721090557	0.437395851
2	9160	182.775704447	0.478585214
2	9303	187.016389225	0.18560667
2	9339	187.771672501	0.376423034
2	9358	187.943864454	0.381087519
2	9389	188.781973203	0.900409621
2	9410	189.271165321	0.504576852
2	9434	189.901898736	0.487991911
2	9590	193.390801405	0.253947218
2	9608	193.927223916	0.160984997
2	10365	216.661592662	0.267583667
2	10625	221.912055409	0.138135943
2	10808	227.020719651	0.30436209
2	10849	229.563054109	0.339998912
2	10979	231.931772396	0.199839284
2	10994	232.060682853	0.053975333
2	11367	240.550246945	0.485807296
2	12015	245.899307078	0.22076748
2	12113	249.093758779	0.273645344
2	12125	249.823188156	0.868921872
2	12179	250.437001227	0.307515406
2	12185	250.493335961	0.177608592
2	12213	250.877807059	0.195863362
2	12396	252.214288463	0.480727867
2	12534	258.299821984	0.387725978
2	12791	262.172576224	0.262890146
2	13114	274.776378113	0.279072182
2	13640	287.178124915	0.309490091
2	13653	287.880556055	0
2	13728	290.964379411	0.279995051
2	13941	298.034399663	0.223085001
2	13972	298.609307205	0.351530654
2	14251	303.016040996	0.354102986
2	14303	304.935341227	0.427894967
2	14404	307.123316281	0.350873327
2	14439	308.541983498	0.005236958
2	14463	309.655795463	0.266073297
2	14591	311.813553355	0.428473346
2	14637	314.133128704	0.278728148
2	14657	315.002079924	0.271384069
2	14696	315.490576372	0.302646664
2	14809	319.417265611	0.242730879
2	15800	345.456317214	0.407843854
2	15833	345.899920758	0.194913768
2	15901	346.684703935	0.182890617
2	15961	350.15964045	0.337936966
2	16112	354.269061125	0.312707359
2	16242	359.19779983	0.147688624
2	16254	359.74230284	0.369127846
2	16852	361.754335051	0.195186701
2	16956	362.245719184	0.491518453
2	17120	363.830461323	0.576684537
2	17233	367.500032862	0.140575485
2	17242	367.643928467	0.161025665
2	17274	369.912176898	0.066777649
2	17499	373.11423142	0.185306019
2	17634	378.315818361	0.22433164
2	17652	379.379552276	0.260358718
2	18575	402.404835759	0.05062384
2	18627	403.452606589	0.080557085
2	18683	405.935676877	0.499547703
2	18847	411.362441286	0.121011795
2	18948	415.506427708	0.443881403
2	18979	415.832457791	0.202921591
2	19355	423.160748899	0.189218143
2	19518	429.393566199	1.086496642
2	19521	429.467775489	0.548339637
2	19652	431.822953186	0.148093797
2	19655	431.835661469	0.235214914
2	19710	433.510250324	0.296723979
2	19719	433.73132721	0.233253218
2	19745	435.032648401	0.349638913
2	19807	435.956996996	0.208106497
2	19871	437.765294989	0.175324858
2	20440	452.757992313	0.432577952
2	20970	467.268265441	0.005879585
2	21002	468.87074487	0.245487544
2	21014	469.3746398	0.235290873
2	21032	469.894035817	0.138252091
2	21065	470.259416213	0.074637135
2	21194	473.746854281	0.005196638
2	21785	481.229328441	0.41629465
2	22148	484.326734894	0.367301233
2	22313	490.574179436	0.38406748
2	22316	490.597387697	0.283097624
2	22535	495.357198183	0.148681274
2	22609	496.582517564	0.496850405
2	22662	499.325725344	0.280333363
2	22935	502.573032938	0.211610877
2	23099	509.925981028	0.105790173
2	23283	515.633494661	0.167182893
2	23729	525.935805378	0.448976635
2	23776	526.646608836	0.004844728
2	23827	528.943766355	0.261562427
2	23983	533.283833162	0.276761112
2	24031	535.847670239	0.145970034
2	24150	540.077587002	0.307272983
2	24225	540.429016945	0.452519239
2	24352	541.318504145	0.345351118
2	24612	548.49726129	0.552950089
2	24621	548.753589036	0.41798493
2	24647	550.120148984	0.506605363
2	24790	552.822950773	0.896712125
2	24814	553.755238379	0.309256006
2	24898	556.437534321	0.477752262
2	25492	572.292846887	0.216918904
2	25896	583.051317146	0.036786012
2	25942	583.799691329	0.207825169
2	26052	587.339126498	0.04262581
2	26196	591.942578836	0.488204632
2	26226	592.718955915	0.312405023
2	26276	594.952688697	0.273507914
2	26293	595.160276306	0.475549377
2	26418	599.813102254	0.482060421
2	26918	601.355065932	0.060761562
2	27147	602.699134444	0.897515323
2	27340	606.279670738	0
2	27370	606.634619582	0.46303445
2	27421	608.34935842	0.565867652
2	27645	614.38127231	0.42661537
2	27698	615.893963667	0.274229771
2	28429	636.852275901	0.513233525
2	28467	637.791836616	0.470339208
2	28797	643.413997818	0.455338323
2	28933	649.684315731	0.367333839
2	28988	650.784134494	0.137307221
2	28999	650.889687982	0.158673709
2	29120	653.67921844	0.479316476
2	29196	656.012543846	0.096958723
2	29274	658.62008895	0.250165713
2	29558	663.022759558	0.256499495
2	29606	665.012791745	0.473266794
2	29700	666.78196	0.056772911
2	29747	668.143505406	0.577163592
2	29770	668.373948124	0.137671321
2	29892	671.800138905	0.01366852
2	30004	676.415770223	0.362420382
2	30676	696.299261081	0.159076429
2	30736	698.288603194	0.288282498
2	30754	698.496238658	0.127367115
2	30783	700.086289218	0.466231168
2	31011	701.721776102	0.251583376
2	31207	707.368226453	0.272525471
2	31275	710.755162117	0.354602413
2	31395	714.755256945	0.140188411
2	31504	717.151383446	0.181743791
2	32269	722.914436339	0.055009896
2	32388	725.265986015	0.492368242
2	32459	726.938923127	0
2	32490	727.92801037	0.134175304
2	32501	728.2060417	0
2	32849	738.1689511	0.279179624
2	33157	744.282228692	0.041086162
2	33420	754.041087298	0.03733775
2	33467	755.890360178	0.142078165
2	33626	760.378318443	0.255126341
2	33892	764.567949433	0.321037233
2	33898	764.724252746	0.461766683
2	34028	769.055840456	0.133605778
2	34067	770.26246812	0.317037523
2	34308	777.792658595	0.273880985
2	34344	778.561253077	0.3038777
2	34658	785.015428047	0.266374102
2	34744	786.29029042	0.389751394
2	34790	787.433210751	0.834220843
2	34946	792.422617497	0.255733481
2	34964	792.567596911	0.144356288
2	35002	793.749223756	1.116321802
2	35393	802.939299503	0.013012629
2	35545	809.51263755	0.161813333
2	35776	816.461716068	0.122213577
2	36064	822.142998948	0.437477946
2	36137	823.578107017	0
2	36176	825.276619038	0.192581632
2	36411	834.760159384	0
2	36524	836.923122887	0
2	36527	836.97991198	0.507067426
2	36552	837.939998261	0
2	36577	838.814262723	0.376117554
2	37443	845.872387942	0.182629931
2	37482	846.180230165	0.4050653
2	37762	854.697713124	0.210689104
2	37892	859.121769465	0.909267918
2	38176	862.466713739	0.206154234
2	38182	862.616283824	0.88806738
2	38496	874.290873438	0.428956139
2	38626	879.706395327	0.191623062
2	38820	881.388399853	0.196056591
2	38973	885.509652338	0.229796306
2	38990	885.668868846	0.193223268
2	39037	886.094250357	0.036759151
2	39242	894.075266309	0.26353009
2	39289	895.454327353	0.531796291
2	39347	896.095931786	0.330278013
2	39406	897.66282329	0.457106741
2	39677	902.259031285	0.447670086
2	39995	914.668202598	0.172560216
2	40119	918.345000063	0.295243316
2	40323	921.450506773	0.193353754
2	40437	924.345284315	0.391884775
2	40543	926.712852852	0.215861899
2	40723	933.454225433	0.034266679
2	40766	935.231368502	0.265379886
2	40857	937.550762692	0.210512637
2	40969	940.607034294	0.353796627
2	41207	944.510983727	0.457647952
2	41302	946.510358528	0.2449851
2	41355	948.416879343	0.299356603
2	41373	949.425848138	0.337442433
2	41642	959.027150123	0.130702597
2	41685	960.065184921	0.500712062
2	42364	962.704729241	0.182723584
2	42594	967.322688754	0.163867053
2	43098	981.048806972	0.492248034
2	43189	981.972586784	0.479877758
2	43407	988.366512377	0.26992905
2	43410	988.398324728	0.642805638
2	43546	991.85979264	0.363528486
2	43585	993.062009019	0.180303628
2	44024	1003.577869765	0.191062214
2	44036	1003.615409531	0.076897054
2	44039	1003.623604422	0.236151863
2	44155	1007.590431778	0.169934111
2	44193	1009.041937761	0.437842185
2	44234	1010.432412986	0.283155747
2	44361	1013.631643811	0.183741981
2	44379	1014.202900688	0.186082563
2	44497	1017.781136228	0.200441825
2	44533	1019.521896248	0.425687802
2	45096	1035.095648201	0.351588904
2	45513	1043.484119357	0.446206903
2	45599	1046.244526006	0.181098447
2	45661	1049.105132378	0.556306669
2	45789	1052.047067611	0.162813517
2	45911	1056.495810298	0.504420937
2	45972	1059.239062355	0.144942706
2	46274	1063.248914807	0.476567089
2	46316	1065.579891818	0.204870402
2	46412	1067.5996985	0.185875581
2	46450	1069.698848337	0.467764127
2	46592	1072.580740991	0.473382869
2	46748	1078.411934845	0.289589337
2	46754	1078.72205441	0.478705164
2	47590	1084.834385991	0.477794484
3	7852	150	16
3	9721	200	16
3	12126	250	16
3	13973	300	16
3	15941	350	16
3	18309	400	16
3	20292	450	16
3	22663	500	16
3	24634	550	16
3	26423	600	16
3	28934	650	16
3	30770	700	16
3	33270	750	16
3	35115	800	16
3	37532	850	16
3	39421	900	16
3	41374	950	16
3	43703	1000	16
3	45662	1050	16
3	48031	1100	16
