version 2
run General-4-20121111-01:10:30-20992
attr configname General
attr datetime 20121111-01:10:30
attr experiment General
attr inifile dxps.ini
attr iterationvars $n=12
attr iterationvars2 "$n=12, $repetition=0"
attr measurement $n=12
attr n 12
attr network oversim.underlay.simpleunderlay.SimpleUnderlayNetwork
attr processid 20992
attr repetition 0
attr replication #0
attr resultdir results
attr runnumber 4
attr seedset 4

vector 1  SimpleUnderlayNetwork.globalObserver.globalStatistics  "GlobalNodeList: Number of nodes"  ETV
1	16292233	1050	4096
1	43813523	1100	4096
1	88439710	1150	4096
1	140678745	1200	4096
1	206172461	1250	4096
1	280004004	1300	4096
1	353852327	1350	4096
1	429967886	1400	4096
1	501379551	1450	4096
1	576163090	1500	4096
1	652389770	1550	4096
1	728427839	1600	4096
1	805543484	1650	4096
1	882172531	1700	4096
1	958215917	1750	4096
1	1033774142	1800	4096
1	1111220782	1850	4096
1	1187990582	1900	4096
1	1262868751	1950	4096
1	1338641359	2000	4096
1	1417317329	2050	4096
1	1493105139	2100	4096
1	1569442151	2150	4096
1	1644326969	2200	4096
1	1722213807	2250	4096
1	1798588077	2300	4096
1	1874296334	2350	4096
1	1950154755	2400	4096
1	2026807572	2450	4096
1	2102831696	2500	4096
1	2179008395	2550	4096
1	2254803561	2600	4096
1	2332513025	2650	4096
1	2409298574	2700	4096
1	2485051837	2750	4096
1	2560816628	2800	4096
1	2636807074	2850	4096
1	2711857358	2900	4096
1	2787208165	2950	4096
1	2862771081	3000	4096
1	2939208717	3050	4096
1	3015712113	3100	4096
1	3091631009	3150	4096
1	3167419317	3200	4096
1	3244291834	3250	4096
1	3321020015	3300	4096
1	3396899585	3350	4096
1	3471380070	3400	4096
1	3546516380	3450	4096
1	3624823603	3500	4096
1	3700410253	3550	4096
1	3777429134	3600	4096
1	3854893623	3650	4096
1	3930286469	3700	4096
1	4006139935	3750	4096
1	4081124029	3800	4096
1	4156829588	3850	4096
1	4231248295	3900	4096
1	4308236429	3950	4096
1	4384762587	4000	4096
1	4457852555	4050	4096
1	4533528978	4100	4096
1	4610656089	4150	4096
1	4686574968	4200	4096
1	4763685970	4250	4096
1	4839967026	4300	4096
1	4914383343	4350	4096
1	4989177920	4400	4096
1	5064849681	4450	4096
1	5140298327	4500	4096
1	5215480824	4550	4096
1	5293220558	4600	4096
1	5370390927	4650	4096
1	5446138968	4700	4096
1	5523488637	4750	4096
1	5601467785	4800	4096
1	5680422953	4850	4096
1	5758085472	4900	4096
1	5833525478	4950	4096
1	5910524958	5000	4096
1	5989173826	5050	4096
1	6065265800	5100	4096
1	6141297705	5150	4096
1	6218558225	5200	4096
1	6294185357	5250	4096
1	6371820734	5300	4096
1	6448940195	5350	4096
1	6524689509	5400	4096
1	6603191229	5450	4096
1	6682615540	5500	4096
1	6758152588	5550	4096
1	6835129771	5600	4096
1	6910554805	5650	4096
1	6989462948	5700	4096
1	7065125338	5750	4096
1	7141474339	5800	4096
1	7219020034	5850	4096
1	7293565444	5900	4096
1	7370837493	5950	4096
1	7447956148	6000	4096
1	7525912004	6050	4096
1	7600610039	6100	4096
1	7676949989	6150	4096
1	7753849717	6200	4096
1	7829559197	6250	4096
1	7906035348	6300	4096
1	7982855307	6350	4096
1	8060947526	6400	4096
1	8138515020	6450	4096
1	8214667913	6500	4096
1	8289545285	6550	4096
1	8366258622	6600	4096
1	8441077313	6650	4096
1	8516625780	6700	4096
1	8592185135	6750	4096
1	8667650867	6800	4096
1	8742580094	6850	4096
1	8819022970	6900	4096
1	8894911422	6950	4096
1	8972879194	7000	4096
1	9049609292	7050	4096
1	9128121015	7100	4096
1	9204854618	7150	4096
1	9281751728	7200	4096
1	9357967472	7250	4096
1	9435878256	7300	4096
1	9511254751	7350	4096
1	9587257516	7400	4096
1	9661950935	7450	4096
1	9737809648	7500	4096
