version 2
run General-1-20121109-14:49:31-11478
attr configname General
attr datetime 20121109-14:49:31
attr experiment General
attr inifile dxps.ini
attr iterationvars $n=6
attr iterationvars2 "$n=6, $repetition=0"
attr measurement $n=6
attr n 6
attr network oversim.underlay.simpleunderlay.SimpleUnderlayNetwork
attr processid 11478
attr repetition 0
attr replication #0
attr resultdir results
attr runnumber 1
attr seedset 1

vector 1  SimpleUnderlayNetwork.globalObserver.globalStatistics  "GlobalNodeList: Number of nodes"  ETV
1	95371	1050	64
1	115940	1100	64
1	145519	1150	64
1	182481	1200	64
1	232654	1250	64
1	287096	1300	64
1	362880	1350	64
1	433317	1400	64
1	514572	1450	64
1	581763	1500	64
1	646825	1550	64
1	734628	1600	64
1	791927	1650	64
1	865085	1700	64
1	928929	1750	64
1	1000082	1800	64
1	1089631	1850	64
1	1157622	1900	64
1	1228391	1950	64
1	1293423	2000	64
1	1358541	2050	64
1	1427072	2100	64
1	1505612	2150	64
1	1567735	2200	64
1	1626372	2250	64
1	1700534	2300	64
1	1765866	2350	64
1	1815003	2400	64
1	1886107	2450	64
1	1948467	2500	64
1	2030557	2550	64
1	2099600	2600	64
1	2166704	2650	64
1	2249706	2700	64
1	2314154	2750	64
1	2385334	2800	64
1	2461040	2850	64
1	2530216	2900	64
1	2588214	2950	64
1	2657539	3000	64
1	2729914	3050	64
1	2796874	3100	64
1	2865597	3150	64
1	2940469	3200	64
1	3007685	3250	64
1	3079969	3300	64
1	3142325	3350	64
1	3213028	3400	64
1	3286067	3450	64
1	3370330	3500	64
1	3435392	3550	64
1	3491052	3600	64
1	3570735	3650	64
1	3633052	3700	64
1	3691396	3750	64
1	3767213	3800	64
1	3848489	3850	64
1	3913891	3900	64
1	3970521	3950	64
1	4038672	4000	64
1	4095763	4050	64
1	4168621	4100	64
1	4232750	4150	64
1	4307271	4200	64
1	4377248	4250	64
1	4443021	4300	64
1	4514031	4350	64
1	4574260	4400	64
1	4638183	4450	64
1	4715555	4500	64
1	4788968	4550	64
1	4854036	4600	64
1	4913269	4650	64
1	4984848	4700	64
1	5045337	4750	64
1	5120799	4800	64
1	5182849	4850	64
1	5247220	4900	64
1	5326293	4950	64
1	5398640	5000	64
1	5465186	5050	64
1	5539411	5100	64
1	5604888	5150	64
1	5667940	5200	64
1	5738530	5250	64
1	5818883	5300	64
1	5891344	5350	64
1	5956489	5400	64
1	6006252	5450	64
1	6073529	5500	64
1	6138220	5550	64
1	6213829	5600	64
1	6285774	5650	64
1	6362461	5700	64
1	6427549	5750	64
1	6504119	5800	64
1	6565889	5850	64
1	6638576	5900	64
1	6704715	5950	64
1	6758545	6000	64
1	6828423	6050	64
1	6892136	6100	64
1	6955171	6150	64
1	7032122	6200	64
1	7104485	6250	64
1	7165065	6300	64
1	7228692	6350	64
1	7292336	6400	64
1	7350314	6450	64
1	7419364	6500	64
1	7485518	6550	64
1	7559838	6600	64
1	7644601	6650	64
1	7722821	6700	64
1	7783314	6750	64
1	7843186	6800	64
1	7907694	6850	64
1	7984596	6900	64
1	8043978	6950	64
1	8110137	7000	64
1	8183049	7050	64
1	8252615	7100	64
1	8310999	7150	64
1	8384698	7200	64
1	8442266	7250	64
1	8503032	7300	64
1	8575357	7350	64
1	8636010	7400	64
1	8707097	7450	64
1	8774475	7500	64
1	8832983	7550	64
1	8912638	7600	64
1	8966045	7650	64
1	9047029	7700	64
1	9104273	7750	64
1	9191904	7800	64
1	9258485	7850	64
1	9323421	7900	64
1	9381038	7950	64
1	9438723	8000	64
1	9508916	8050	64
1	9573688	8100	64
1	9645572	8150	64
1	9718466	8200	64
