version 2
run General-3-20121120-17:04:34-8920
attr configname General
attr datetime 20121120-17:04:34
attr experiment General
attr inifile dxps.ini
attr iterationvars $n=10
attr iterationvars2 "$n=10, $repetition=0"
attr measurement $n=10
attr n 10
attr network oversim.underlay.simpleunderlay.SimpleUnderlayNetwork
attr processid 8920
attr repetition 0
attr replication #0
attr resultdir results
attr runnumber 3
attr seedset 3

vector 1  SimpleUnderlayNetwork.globalObserver.globalStatistics  "GlobalNodeList: Number of nodes"  ETV
1	174915	1050	64
1	196204	1100	64
1	204449	1150	64
1	208848	1200	64
1	235476	1250	64
1	239434	1300	64
1	254835	1350	64
1	259175	1400	64
1	273276	1450	64
1	279964	1500	64
1	284701	1550	64
1	299963	1600	64
1	304980	1650	64
1	319822	1700	64
1	325143	1750	64
1	329983	1800	64
1	345766	1850	64
1	349726	1900	64
1	365162	1950	64
1	369456	2000	64
1	383179	2050	64
1	389094	2100	64
1	393858	2150	64
1	409047	2200	64
1	413917	2250	64
1	428652	2300	64
1	433342	2350	64
1	437218	2400	64
1	452903	2450	64
1	456935	2500	64
1	472580	2550	64
1	476573	2600	64
1	490507	2650	64
1	496420	2700	64
1	501751	2750	64
1	517226	2800	64
1	521991	2850	64
1	537092	2900	64
1	541857	2950	64
1	546278	3000	64
1	562289	3050	64
1	566071	3100	64
1	581412	3150	64
1	585586	3200	64
1	599274	3250	64
1	605630	3300	64
1	610385	3350	64
1	625268	3400	64
1	629790	3450	64
1	644857	3500	64
1	649868	3550	64
1	653833	3600	64
1	669653	3650	64
1	673488	3700	64
1	689071	3750	64
1	693465	3800	64
1	706984	3850	64
1	713202	3900	64
1	718111	3950	64
1	733090	4000	64
1	737881	4050	64
1	752672	4100	64
1	757502	4150	64
1	761960	4200	64
1	777816	4250	64
1	781709	4300	64
1	797447	4350	64
1	801624	4400	64
1	815130	4450	64
1	821428	4500	64
1	826454	4550	64
1	841580	4600	64
1	846509	4650	64
1	861455	4700	64
1	866298	4750	64
1	870972	4800	64
1	886645	4850	64
1	890918	4900	64
1	906531	4950	64
1	910682	5000	64
1	924381	5050	64
1	930263	5100	64
1	934978	5150	64
1	949917	5200	64
1	955030	5250	64
1	969978	5300	64
1	974850	5350	64
1	978674	5400	64
1	994402	5450	64
1	998842	5500	64
1	1015218	5550	64
1	1019345	5600	64
1	1032592	5650	64
1	1038531	5700	64
1	1043285	5750	64
1	1058742	5800	64
1	1063860	5850	64
1	1078474	5900	64
1	1083409	5950	64
1	1087693	6000	64
1	1103711	6050	64
1	1107935	6100	64
1	1123726	6150	64
1	1127712	6200	64
1	1141552	6250	64
1	1147632	6300	64
1	1152567	6350	64
1	1167522	6400	64
1	1172179	6450	64
1	1186722	6500	64
1	1191655	6550	64
1	1195748	6600	64
1	1211448	6650	64
1	1215202	6700	64
1	1230552	6750	64
1	1234416	6800	64
1	1247639	6850	64
1	1253915	6900	64
1	1258741	6950	64
1	1273576	7000	64
1	1278548	7050	64
1	1293435	7100	64
1	1298577	7150	64
1	1302803	7200	64
1	1318296	7250	64
1	1322773	7300	64
1	1338663	7350	64
1	1342596	7400	64
1	1356361	7450	64
1	1363005	7500	64
1	1367906	7550	64
1	1382915	7600	64
1	1387422	7650	64
1	1401781	7700	64
1	1407146	7750	64
1	1411133	7800	64
1	1426534	7850	64
1	1430400	7900	64
1	1445871	7950	64
1	1449843	8000	64
1	1463927	8050	64
1	1470070	8100	64
1	1474992	8150	64
1	1490075	8200	64
