version 2
run General-2-20121120-16:58:59-8919
attr configname General
attr datetime 20121120-16:58:59
attr experiment General
attr inifile dxps.ini
attr iterationvars $n=8
attr iterationvars2 "$n=8, $repetition=0"
attr measurement $n=8
attr n 8
attr network oversim.underlay.simpleunderlay.SimpleUnderlayNetwork
attr processid 8919
attr repetition 0
attr replication #0
attr resultdir results
attr runnumber 2
attr seedset 2

vector 1  SimpleUnderlayNetwork.globalObserver.globalStatistics  "GlobalNodeList: Number of nodes"  ETV
1	126329	1050	64
1	139434	1100	64
1	145723	1150	64
1	151274	1200	64
1	164728	1250	64
1	168888	1300	64
1	181569	1350	64
1	185258	1400	64
1	196839	1450	64
1	202030	1500	64
1	207154	1550	64
1	219354	1600	64
1	223721	1650	64
1	235493	1700	64
1	240699	1750	64
1	245432	1800	64
1	258676	1850	64
1	263573	1900	64
1	276383	1950	64
1	280674	2000	64
1	292518	2050	64
1	297229	2100	64
1	302400	2150	64
1	314384	2200	64
1	319557	2250	64
1	331489	2300	64
1	336348	2350	64
1	340572	2400	64
1	353342	2450	64
1	357907	2500	64
1	370650	2550	64
1	374714	2600	64
1	386036	2650	64
1	391146	2700	64
1	396215	2750	64
1	407729	2800	64
1	412915	2850	64
1	424617	2900	64
1	429512	2950	64
1	434125	3000	64
1	446837	3050	64
1	450991	3100	64
1	463449	3150	64
1	467425	3200	64
1	479164	3250	64
1	484128	3300	64
1	488843	3350	64
1	500782	3400	64
1	505857	3450	64
1	517709	3500	64
1	522608	3550	64
1	526823	3600	64
1	539459	3650	64
1	543368	3700	64
1	555805	3750	64
1	559786	3800	64
1	571090	3850	64
1	576248	3900	64
1	581282	3950	64
1	593351	4000	64
1	598240	4050	64
1	610502	4100	64
1	614925	4150	64
1	619175	4200	64
1	632088	4250	64
1	636548	4300	64
1	648834	4350	64
1	652914	4400	64
1	664223	4450	64
1	669449	4500	64
1	674483	4550	64
1	686333	4600	64
1	691134	4650	64
1	702965	4700	64
1	708241	4750	64
1	712067	4800	64
1	724745	4850	64
1	728808	4900	64
1	741436	4950	64
1	745846	5000	64
1	757746	5050	64
1	762603	5100	64
1	767609	5150	64
1	780062	5200	64
1	785248	5250	64
1	797378	5300	64
1	802086	5350	64
1	806316	5400	64
1	819049	5450	64
1	823290	5500	64
1	835315	5550	64
1	839936	5600	64
1	851448	5650	64
1	856655	5700	64
1	861508	5750	64
1	873647	5800	64
1	878613	5850	64
1	890622	5900	64
1	895457	5950	64
1	900104	6000	64
1	913224	6050	64
1	917374	6100	64
1	929646	6150	64
1	933679	6200	64
1	945696	6250	64
1	950762	6300	64
1	955698	6350	64
1	967692	6400	64
1	972667	6450	64
1	984542	6500	64
1	989766	6550	64
1	993703	6600	64
1	1006253	6650	64
1	1010355	6700	64
1	1022830	6750	64
1	1026629	6800	64
1	1038765	6850	64
1	1044028	6900	64
1	1048601	6950	64
1	1060253	7000	64
1	1064927	7050	64
1	1077169	7100	64
1	1081522	7150	64
1	1085454	7200	64
1	1098291	7250	64
1	1102192	7300	64
1	1115023	7350	64
1	1119274	7400	64
1	1130630	7450	64
1	1135690	7500	64
1	1140566	7550	64
1	1152519	7600	64
1	1157380	7650	64
1	1169091	7700	64
1	1174302	7750	64
1	1178891	7800	64
1	1192106	7850	64
1	1195970	7900	64
1	1208680	7950	64
1	1213096	8000	64
1	1224369	8050	64
1	1229810	8100	64
1	1234690	8150	64
1	1246656	8200	64
