version 2
run Scribe-0-20110701-19:42:57-11019
attr configname Scribe
attr datetime 20110701-19:42:57
attr experiment Scribe
attr inifile /Users/hill/sim/OverSim-20101103/simulations/omnetpp.ini
attr iterationvars ""
attr iterationvars2 $repetition=0
attr measurement ""
attr network oversim.underlay.simpleunderlay.SimpleUnderlayNetwork
attr processid 11019
attr repetition 0
attr replication #0
attr resultdir results
attr runnumber 0
attr seedset 0

vector 1  SimpleUnderlayNetwork.globalObserver.globalStatistics  "GlobalNodeList: Number of nodes"  ETV
vector 2  SimpleUnderlayNetwork.globalObserver.globalStatistics  "LifetimeChurn: Session Time"  ETV
vector 3  SimpleUnderlayNetwork.globalObserver.globalStatistics  "LifetimeChurn: Time between creates"  ETV
vector 4  SimpleUnderlayNetwork.globalObserver.globalStatistics  "LifetimeChurn: Time between deletes"  ETV
1	1	0	0
1	5355	50	10
1	9792	100	10
1	14008	150	10
1	18765	200	9
1	23273	250	9
1	27849	300	9
1	32572	350	9
1	37220	400	9
1	42406	450	9
1	48110	500	9
1	53680	550	9
1	58986	600	9
1	64803	650	9
1	70939	700	9
1	77613	750	9
1	84649	800	9
1	91299	850	9
1	98197	900	9
1	106632	950	10
1	114537	1000	10
1	122346	1050	10
1	129897	1100	10
1	137776	1150	10
1	145269	1200	10
1	153291	1250	10
1	161821	1300	10
1	170153	1350	10
1	178922	1400	10
1	188780	1450	10
1	198494	1500	10
1	210115	1550	11
1	220375	1600	11
1	231188	1650	11
1	241520	1700	11
1	252656	1750	11
1	263510	1800	11
1	274973	1850	11
1	285944	1900	11
1	297855	1950	11
1	309927	2000	11
1	323069	2050	11
1	335220	2100	10
1	347505	2150	10
1	360453	2200	10
1	374886	2250	10
1	389844	2300	10
1	404442	2350	10
1	418990	2400	10
1	434585	2450	10
1	451004	2500	11
1	466434	2550	11
1	482438	2600	11
1	498083	2650	11
1	513417	2700	11
1	529401	2750	11
1	545805	2800	11
1	560987	2850	11
1	576513	2900	11
1	592096	2950	11
1	607978	3000	11
1	623928	3050	11
1	641090	3100	11
1	658557	3150	11
1	676636	3200	11
1	693980	3250	11
1	710612	3300	11
1	726850	3350	11
1	743045	3400	11
1	759495	3450	11
1	775913	3500	11
1	792047	3550	11
1	808786	3600	11
1	825852	3650	11
1	843666	3700	11
1	861243	3750	11
1	878897	3800	11
1	897087	3850	11
1	914838	3900	11
1	932328	3950	11
1	950857	4000	11
1	968387	4050	11
1	986146	4100	11
1	1004196	4150	11
1	1021436	4200	11
1	1038607	4250	11
1	1056290	4300	11
1	1073403	4350	11
1	1090681	4400	11
1	1107346	4450	11
1	1124393	4500	11
1	1141071	4550	11
1	1158453	4600	11
1	1175432	4650	10
1	1190255	4700	10
1	1205171	4750	10
1	1219675	4800	10
1	1234859	4850	10
1	1249982	4900	9
1	1262814	4950	9
1	1277311	5000	9
1	1289121	5050	8
1	1300965	5100	8
1	1312872	5150	8
1	1325297	5200	8
1	1335607	5250	8
1	1345952	5300	8
1	1356992	5350	8
1	1369996	5400	9
1	1383661	5450	9
1	1396398	5500	9
1	1408181	5550	9
1	1420349	5600	9
1	1432695	5650	10
1	1444031	5700	10
1	1455844	5750	10
1	1468165	5800	10
1	1478873	5850	10
1	1489953	5900	10
1	1503264	5950	10
1	1515030	6000	11
1	1527370	6050	11
1	1540034	6100	11
1	1551853	6150	11
2	2	0.217829337	9241.93638778
2	33	1.224823493	6503.661265732
2	113	2.571822527	25990.878411794
2	190	3.607553925	4599.003449987
2	304	4.114792731	38457.757481104
2	505	4.969314033	11364.312370187
2	640	5.443274075	28948.38512108
2	1104	6.952783763	2065.067307883
2	1447	7.781933873	191.400360331
2	1869	9.654567193	4886.745892484
2	101389	921.610261242	4115.779962426
2	203072	1522.308536649	15057.842586373
2	434745	2450.484907365	6090.82423183
2	1360253	5365.657202278	1119.461606326
2	1425224	5620.83574892	3149.034630053
2	1511809	5987.460768184	11451.389547
3	2	0.217829337	0.217829337
3	33	1.224823493	1.006994156
3	113	2.571822527	1.346999034
3	190	3.607553925	1.035731398
3	304	4.114792731	0.507238806
3	505	4.969314033	0.854521302
3	640	5.443274075	0.473960042
3	1104	6.952783763	1.509509688
3	1447	7.781933873	0.82915011
3	1869	9.654567193	1.87263332
3	101389	921.610261242	911.955694049
3	203072	1522.308536649	600.698275407
3	434745	2450.484907365	928.176370716
3	1360253	5365.657202278	2915.172294913
3	1425224	5620.83574892	255.178546642
3	1511809	5987.460768184	366.625019264
4	17296	184.182294204	184.182294204
4	324944	2057.020091646	1872.837797442
4	1154236	4587.611003912	2530.590912266
4	1244187	4881.400459677	293.789455765
4	1282820	5022.390223668	140.989763991
